# vtk DataFile Version 2.0
2D Unstructured Grid of Linear Triangles
ASCII

DATASET UNSTRUCTURED_GRID
POINTS 839 float
0 0 0.00
1 0 0.00
2 0 0.00
3 0 0.00
3 1 0.00
0 1 0.00
0.1 0 0.00
0.1925 0 0.00
0.278062 0 0.00
0.357208 0 0.00
0.430417 0 0.00
0.498136 0 0.00
0.560776 0 0.00
0.618718 0 0.00
0.672314 0 0.00
0.72189 0 0.00
0.767748 0 0.00
0.810167 0 0.00
0.849405 0 0.00
0.885699 0 0.00
0.919272 0 0.00
0.946181 0 0.00
0.973091 0 0.00
1.02338 0.00892139 0.00
1.04695 0.0177948 0.00
1.07076 0.0265014 0.00
1.09481 0.0349139 0.00
1.11912 0.0428988 0.00
1.14367 0.0503293 0.00
1.1684 0.0571697 0.00
1.19323 0.0634352 0.00
1.21807 0.0691469 0.00
1.24286 0.0743307 0.00
1.26751 0.0790141 0.00
1.29239 0.0832716 0.00
1.31758 0.0871005 0.00
1.34304 0.0904683 0.00
1.36868 0.0933466 0.00
1.39442 0.0957126 0.00
1.4202 0.0975569 0.00
1.44591 0.0988804 0.00
1.47148 0.0996895 0.00
1.49683 0.0999962 0.00
1.52189 0.0998172 0.00
1.54716 0.0991494 0.00
1.57266 0.0979761 0.00
1.59831 0.0962851 0.00
1.62404 0.0940696 0.00
1.64975 0.0913306 0.00
1.67536 0.088084 0.00
1.70081 0.0843533 0.00
1.72602 0.0801674 0.00
1.75091 0.0755588 0.00
1.77544 0.0705527 0.00
1.80009 0.0650245 0.00
1.8248 0.058944 0.00
1.84949 0.0522842 0.00
1.87408 0.0450235 0.00
1.8985 0.0371678 0.00
1.92271 0.0288277 0.00
1.94671 0.0201415 0.00
1.9645 0.0135075 0.00
1.98226 0.00677774 0.00
2.025 0 0.00
2.05187 0 0.00
2.08077 0 0.00
2.11182 0 0.00
2.14521 0 0.00
2.1811 0 0.00
2.21968 0 0.00
2.26116 0 0.00
2.30575 0 0.00
2.35368 0 0.00
2.4052 0 0.00
2.46059 0 0.00
2.52014 0 0.00
2.58415 0 0.00
2.65296 0 0.00
2.72693 0 0.00
2.80645 0 0.00
2.87097 0 0.00
2.93548 0 0.00
3 0.1 0.00
3 0.205 0.00
3 0.31525 0.00
3 0.431013 0.00
3 0.552563 0.00
3 0.680191 0.00
3 0.786794 0.00
3 0.893397 0.00
2.85 1 0.00
2.7 1 0.00
2.55 1 0.00
2.4 1 0.00
2.25 1 0.00
2.1 1 0.00
1.95 1 0.00
1.8 1 0.00
1.65 1 0.00
1.5 1 0.00
1.35 1 0.00
1.2 1 0.00
1.05 1 0.00
0.9 1 0.00
0.75 1 0.00
0.6 1 0.00
0.45 1 0.00
0.3 1 0.00
0.15 1 0.00
0 0.85 0.00
0 0.7075 0.00
0 0.572125 0.00
0 0.443519 0.00
0 0.321343 0.00
0 0.214229 0.00
0 0.107114 0.00
0 0.0535571 0.00
0.986515 0.0241374 0.00
2.00341 0.0179033 0.00
1.74274 0.101008 0.00
1.48383 0.123495 0.00
1.22552 0.0945452 0.00
1.98288 0.0296807 0.00
1.00812 0.0231172 0.00
1.96286 0.038573 0.00
1.25064 0.0997576 0.00
1.76789 0.0959568 0.00
1.50948 0.123573 0.00
1.71732 0.105673 0.00
1.20034 0.0889274 0.00
1.45797 0.123058 0.00
1.02713 0.0337681 0.00
1.94136 0.0468152 0.00
1.79296 0.0905092 0.00
1.17509 0.0828443 0.00
1.27588 0.104552 0.00
1.0507 0.0435931 0.00
1.53515 0.12329 0.00
1.91781 0.0551929 0.00
1.6916 0.109886 0.00
1.81809 0.084592 0.00
1.43187 0.122143 0.00
1.14983 0.0762062 0.00
1.07502 0.0526598 0.00
1.89333 0.0633473 0.00
1.84327 0.0781182 0.00
1.12468 0.068959 0.00
1.09973 0.0611032 0.00
1.8684 0.0710314 0.00
1.30138 0.108874 0.00
1.56102 0.122521 0.00
1.66562 0.113578 0.00
1.40564 0.120659 0.00
1.32718 0.112673 0.00
1.58709 0.121181 0.00
1.63948 0.116705 0.00
1.37938 0.118583 0.00
1.3532 0.115916 0.00
1.61328 0.119243 0.00
2.02827 0.0247088 0.00
0.959565 0.0246625 0.00
2.00461 0.0432168 0.00
1.00355 0.0481437 0.00
1.78574 0.117296 0.00
1.98226 0.055958 0.00
1.20748 0.115701 0.00
1.02932 0.060063 0.00
1.96042 0.0655353 0.00
1.8112 0.111433 0.00
1.18193 0.109692 0.00
1.23291 0.121411 0.00
1.05382 0.0706774 0.00
1.93753 0.0741739 0.00
1.83682 0.105132 0.00
1.15622 0.103247 0.00
1.07925 0.0800448 0.00
1.91326 0.0826029 0.00
1.86252 0.0982379 0.00
1.7603 0.12284 0.00
1.13045 0.0962015 0.00
1.10479 0.0884822 0.00
1.8881 0.0906964 0.00
1.49671 0.148473 0.00
0.974682 0.0489658 0.00
1.25845 0.126818 0.00
1.73466 0.128068 0.00
1.52259 0.148545 0.00
1.47069 0.148436 0.00
1.2843 0.131787 0.00
1.70865 0.132881 0.00
1.54878 0.148343 0.00
1.44418 0.148088 0.00
2.05666 0.0291856 0.00
0.930983 0.0254391 0.00
1.3105 0.136168 0.00
1.68228 0.137138 0.00
1.57533 0.1475 0.00
1.41737 0.147071 0.00
1.33698 0.139896 0.00
1.65564 0.140754 0.00
1.60207 0.145952 0.00
1.3905 0.145361 0.00
1.36367 0.142965 0.00
1.62888 0.143698 0.00
2.03063 0.0537604 0.00
0.945758 0.0506774 0.00
2.0051 0.0719837 0.00
1.00917 0.0743142 0.00
1.98133 0.0846512 0.00
1.18848 0.138149 0.00
1.80459 0.139926 0.00
0.988958 0.0703314 0.00
1.02933 0.0881449 0.00
1.95812 0.0944317 0.00
1.83039 0.133761 0.00
1.1626 0.131872 0.00
1.05669 0.0997978 0.00
1.93402 0.103297 0.00
1.85654 0.127152 0.00
1.13634 0.125135 0.00
1.08356 0.109287 0.00
1.90878 0.1118 0.00
1.8828 0.119811 0.00
1.10997 0.117627 0.00
1.21405 0.14431 0.00
2.06105 0.0614053 0.00
1.77901 0.145959 0.00
0.963951 0.0762579 0.00
2.0882 0.0320437 0.00
0.899798 0.0265138 0.00
1.23972 0.150374 0.00
0.91447 0.0523081 0.00
1.75325 0.151846 0.00
1.50971 0.174731 0.00
1.48433 0.174867 0.00
1.26584 0.156254 0.00
1.72702 0.157523 0.00
1.53567 0.175708 0.00
2.0325 0.0856262 0.00
1.45773 0.175929 0.00
1.29255 0.161566 0.00
1.70016 0.162663 0.00
1.56267 0.175803 0.00
1.42997 0.175749 0.00
0.930991 0.0789381 0.00
1.31967 0.166008 0.00
1.67287 0.166981 0.00
1.59014 0.174951 0.00
1.40219 0.174552 0.00
2.00541 0.103251 0.00
1.347 0.169643 0.00
1.64538 0.170477 0.00
1.61777 0.173138 0.00
1.37452 0.172506 0.00
0.993468 0.102553 0.00
1.9804 0.115686 0.00
1.03042 0.120119 0.00
1.95589 0.125594 0.00
1.16865 0.161439 0.00
1.85053 0.157708 0.00
1.14231 0.155669 0.00
1.06028 0.131401 0.00
1.93056 0.134609 0.00
1.87742 0.150845 0.00
1.11526 0.148671 0.00
1.08804 0.140639 0.00
1.90426 0.143094 0.00
1.8243 0.16339 0.00
2.09531 0.0666513 0.00
2.12246 0.033882 0.00
0.865507 0.0280236 0.00
1.19395 0.167757 0.00
0.881258 0.0542679 0.00
2.06486 0.0962805 0.00
0.950976 0.107445 0.00
1.79901 0.169623 0.00
0.896997 0.0809159 0.00
1.21942 0.174353 0.00
1.77343 0.176087 0.00
2.03418 0.119979 0.00
1.24533 0.181177 0.00
1.49791 0.198402 0.00
2.00576 0.136965 0.00
0.914512 0.109781 0.00
2.10179 0.104081 0.00
1.74738 0.182713 0.00
1.00413 0.143747 0.00
1.97951 0.149174 0.00
1.52095 0.203345 0.00
1.47429 0.20485 0.00
1.03513 0.154771 0.00
1.95365 0.159138 0.00
1.87174 0.183028 0.00
1.12087 0.18083 0.00
1.06425 0.16496 0.00
1.927 0.16809 0.00
1.8995 0.176304 0.00
1.09269 0.173856 0.00
1.27233 0.188434 0.00
2.13274 0.0702574 0.00
1.72025 0.189752 0.00
1.54829 0.20517 0.00
0.970293 0.138926 0.00
1.44448 0.20681 0.00
2.15923 0.035196 0.00
1.14898 0.186758 0.00
1.30057 0.194139 0.00
1.69183 0.195309 0.00
1.5766 0.206147 0.00
1.41495 0.206462 0.00
1.32881 0.198628 0.00
1.66324 0.199759 0.00
0.828549 0.030337 0.00
1.60558 0.205138 0.00
1.38595 0.204988 0.00
1.84383 0.18887 0.00
1.35722 0.202289 0.00
1.63444 0.203036 0.00
0.846653 0.0569009 0.00
0.86235 0.0825958 0.00
0.877906 0.111408 0.00
1.17397 0.18792 0.00
0.934227 0.141015 0.00
2.0685 0.133803 0.00
1.81891 0.189957 0.00
1.19701 0.19916 0.00
1.79574 0.201135 0.00
2.03594 0.156862 0.00
2.14247 0.109705 0.00
0.896641 0.143378 0.00
2.00614 0.173087 0.00
1.00981 0.177806 0.00
1.97857 0.1849 0.00
2.19848 0.0363384 0.00
2.17287 0.0729757 0.00
0.98449 0.166799 0.00
1.03844 0.189275 0.00
1.22401 0.201976 0.00
1.95116 0.194667 0.00
1.09845 0.20857 0.00
1.06778 0.199504 0.00
1.92283 0.202715 0.00
1.89343 0.210922 0.00
1.76862 0.203782 0.00
2.10835 0.144475 0.00
0.788373 0.0334373 0.00
0.831041 0.0831454 0.00
0.810023 0.0628731 0.00
0.839826 0.110997 0.00
0.955849 0.172461 0.00
1.50035 0.233027 0.00
1.24751 0.214837 0.00
1.12752 0.21052 0.00
1.74492 0.216478 0.00
1.86498 0.212742 0.00
1.53209 0.230955 0.00
1.46268 0.240252 0.00
0.856959 0.144688 0.00
1.27856 0.222955 0.00
1.71366 0.224402 0.00
1.5592 0.238485 0.00
1.42966 0.240408 0.00
1.30827 0.228703 0.00
1.68351 0.230253 0.00
1.59115 0.238763 0.00
1.39853 0.240319 0.00
1.16122 0.221453 0.00
1.33761 0.233457 0.00
1.65274 0.235488 0.00
1.62164 0.23745 0.00
1.36773 0.238072 0.00
2.07241 0.174213 0.00
0.918672 0.177271 0.00
1.83134 0.223611 0.00
2.15262 0.152334 0.00
2.18606 0.11405 0.00
2.03746 0.196313 0.00
2.24032 0.0375323 0.00
2.21549 0.0754014 0.00
2.00597 0.210597 0.00
0.983022 0.198234 0.00
1.01218 0.208574 0.00
1.97729 0.221815 0.00
0.877928 0.180359 0.00
1.03844 0.22517 0.00
1.94712 0.231028 0.00
0.796939 0.102919 0.00
0.744479 0.0366713 0.00
0.768367 0.0700979 0.00
1.07253 0.231752 0.00
0.814372 0.143782 0.00
1.2091 0.236747 0.00
1.91672 0.233998 0.00
1.78323 0.238758 0.00
2.11578 0.188706 0.00
0.946714 0.211374 0.00
1.11015 0.252327 0.00
1.88124 0.254444 0.00
0.834789 0.182002 0.00
2.19982 0.158314 0.00
1.48458 0.27775 0.00
1.52997 0.271416 0.00
1.2523 0.253537 0.00
2.07584 0.218358 0.00
2.28497 0.0389074 0.00
1.73962 0.255361 0.00
2.23213 0.117965 0.00
0.902873 0.21748 0.00
2.26066 0.0779287 0.00
1.44526 0.278292 0.00
1.28593 0.254724 0.00
2.03628 0.237846 0.00
2.1645 0.19844 0.00
1.7057 0.256519 0.00
1.57441 0.275562 0.00
1.41403 0.271834 0.00
1.3142 0.266103 0.00
1.67634 0.268922 0.00
1.60643 0.268342 0.00
1.37878 0.282459 0.00
2.00395 0.244338 0.00
1.34624 0.266568 0.00
1.6376 0.273527 0.00
0.990334 0.245225 0.00
0.747577 0.108657 0.00
1.97641 0.261461 0.00
0.769147 0.143018 0.00
0.696936 0.0399349 0.00
0.72227 0.0760713 0.00
0.78882 0.182167 0.00
0.858272 0.221306 0.00
1.1653 0.271052 0.00
1.04813 0.268919 0.00
1.82649 0.273096 0.00
1.9343 0.26764 0.00
2.21536 0.205198 0.00
2.12461 0.241174 0.00
0.933589 0.254781 0.00
2.24924 0.163882 0.00
0.811669 0.223573 0.00
2.33265 0.0405363 0.00
2.30861 0.0807816 0.00
2.28077 0.122029 0.00
1.21646 0.288183 0.00
1.77501 0.290383 0.00
2.07475 0.265337 0.00
0.885848 0.261795 0.00
0.728457 0.143325 0.00
0.701326 0.117967 0.00
2.02351 0.284576 0.00
0.74025 0.179975 0.00
0.673304 0.0828736 0.00
0.645643 0.0434714 0.00
2.18021 0.245612 0.00
1.50722 0.319674 0.00
1.12684 0.300923 0.00
0.761877 0.223916 0.00
1.08557 0.300931 0.00
1.27353 0.297221 0.00
1.46412 0.320607 0.00
1.00185 0.294216 0.00
1.71725 0.299452 0.00
1.86322 0.301715 0.00
1.90889 0.306363 0.00
0.962431 0.287906 0.00
1.4177 0.317141 0.00
0.837595 0.26656 0.00
1.60595 0.312898 0.00
1.331 0.310828 0.00
1.66204 0.31418 0.00
1.96736 0.313997 0.00
2.26755 0.212846 0.00
2.38364 0.0424603 0.00
[...]
CELL_DATA 1559
SCALARS density float
LOOKUP_TABLE default
1.65962
0.678499
0.726739
0.976814
1.27397
0.516488
1.64629
0.524205
1.24559
0.7048
0.952555
0.74908
1.30322
1.00247
1.5876
0.535697
0.681924
1.33454
1.21686
1.53793
0.927103
0.554109
0.772585
0.657688
1.03022
1.36864
1.49223
0.578221
0.632133
1.40642
1.44812
0.605363
1.18702
0.901095
0.797604
1.05894
1.15586
0.875356
0.823425
1.08946
1.12233
0.849476
1.19503
1.65206
0.545275
1.26776
1.61206
0.728719
0.70658
0.526756
1.29599
1.56479
0.538647
1.06275
0.683589
1.32588
1.51882
0.984522
0.556568
0.659295
1.23972
1.35823
1.47498
0.580084
0.957911
0.751276
0.633688
1.39366
1.43276
0.606948
1.01283
1.60788
1.21135
0.931271
0.774756
1.04204
1.62009
1.18297
0.904822
0.799518
1.07069
0.533485
1.15506
0.878523
0.825559
1.09927
1.60193
1.62262
1.12861
0.852131
0.723055
0.539184
1.30696
1.56111
0.555681
0.701033
1.33664
1.11115
1.2788
1.52024
0.576931
0.677959
1.36854
1.47966
0.602102
0.653585
0.745001
1.40303
1.44024
0.628141
0.874913
0.991115
1.60891
1.25102
0.767766
0.968531
1.01463
0.538006
1.22294
0.791583
0.943559
1.57949
1.60324
1.04338
0.555483
0.720723
1.10085
1.32598
1.57791
1.29732
1.1945
1.54031
0.816217
0.918643
0.576071
1.07444
0.698592
1.16575
1.3565
0.841616
0.893102
1.1059
1.50097
0.742518
0.600085
1.13746
0.867585
0.675347
1.38933
1.46212
0.625596
0.650921
1.42464
0.783459
1.58809
1.58722
1.26972
0.765054
1.15064
0.550634
0.993333
1.02248
1.5687
0.573236
1.1057
1.33476
0.736663
1.58642
1.53606
1.24219
0.596507
0.788748
0.967439
0.715182
1.3644
1.05145
1.50027
0.620787
0.693007
1.58272
1.39603
1.46443
0.645406
0.66967
1.42951
1.21419
0.813321
0.942027
1.07722
1.30682
1.18563
0.838415
0.916144
1.10563
0.545777
1.10217
1.15626
0.86423
0.89036
1.12798
0.758442
1.57706
1.09931
1.55583
0.570431
1.57406
1.55052
1.56437
0.59453
1.27983
1.35374
1.51861
0.734017
0.618432
1.57411
1.56691
0.781228
0.71248
1.38392
1.48378
0.6426
1.001
0.690129
1.41591
1.44935
0.666697
1.02304
1.32541
1.25296
1.11698
0.755628
0.805303
0.980394
0.558237
1.05306
1.2257
0.830213
0.956238
1.08426
1.08974
0.757854
1.56277
1.19793
0.855343
0.93145
1.11378
0.587897
1.16957
1.2984
0.88048
0.906
1.14128
1.56066
1.55688
1.54522
0.614087
0.778049
1.56069
1.51462
0.638008
1.36124
0.728861
1.39002
1.48287
0.661489
0.707279
1.42025
1.56036
1.45134
0.684753
0.749766
1.13007
1.27192
1.03092
0.801709
1.08425
0.581413
1.00165
1.53806
1.33422
1.05902
1.54517
1.54883
0.706683
1.55358
0.771322
1.24524
0.610411
0.826528
0.978426
1.08167
1.54848
1.53057
0.635317
1.21809
0.851856
1.49872
0.953331
0.658684
1.10595
1.37874
1.13218
0.726098
0.747044
1.40765
1.54953
1.46796
0.681773
1.1905
0.877055
0.704359
0.928105
1.43759
1.13363
1.16275
1.30815
0.902198
1.09474
0.79404
1.07387
1.35142
0.59733
1.54285
0.768013
1.5447
1.28255
1.03195
0.628251
1.54227
1.07092
0.818011
1.52175
1.5426
0.653534
1.01471
0.58652
1.06395
1.49444
0.676509
0.741815
1.32552
1.41121
1.46694
0.698846
0.720724
1.43911
1.25664
1.10688
0.843319
0.993551
1.53711
1.09294
0.790153
1.07212
1.38376
1.22999
0.869083
0.969848
1.12013
1.20299
0.894452
1.52405
0.944624
1.14775
0.762522
1.52996
1.17582
0.919404
1.53382
1.53502
0.621567
1.30024
1.53263
1.10875
0.813586
0.64957
1.52612
1.3582
1.50547
0.673402
1.53408
1.48032
0.600425
0.695769
0.78166
0.738919
1.42686
1.45384
0.717619
0.735269
1.09255
1.0608
1.0387
1.39966
1.27501
1.0624
0.83847
0.759784
1.52976
1.01332
1.53107
1.52849
1.08448
1.33447
1.53072
1.24907
0.864343
0.804687
0.63716
0.990516
1.11183
1.1233
1.22251
1.37374
1.52666
0.890242
0.965915
1.14099
0.665929
1.1956
0.915585
0.940501
1.16846
1.49863
0.778795
0.689787
1.06074
1.08722
1.51479
1.477
1.30953
0.711746
1.42795
1.45319
0.732966
0.754289
1.52578
0.827141
0.626735
0.711611
1.51274
1.52399
1.52147
1.35021
1.51765
1.52277
1.51988
1.11523
0.799452
1.04817
1.28657
1.06781
1.40268
0.853117
0.659619
1.08585
0.773857
1.02817
1.09707
1.04831
0.685682
1.50445
1.07446
1.519
1.32644
1.2605
1.48663
0.880109
1.00701
0.708314
1.12518
1.46514
1.51345
0.729691
0.822056
1.44126
0.751091
1.23435
0.906353
0.982357
1.15408
1.37621
1.20806
0.932541
0.957569
1.18146
1.52006
0.640123
1.52085
1.51823
1.51672
0.795808
1.08466
1.51837
1.41672
1.30336
0.622268
0.771078
0.846127
1.08701
1.51443
0.674132
1.04611
1.36183
1.08015
0.700383
0.809334
1.49804
1.08448
1.48261
0.72285
1.0497
1.27954
1.51337
1.46341
0.744185
1.39041
0.873611
1.51414
1.50408
1.5143
1.50348
1.51098
1.44113
1.50756
0.793546
1.02563
1.07578
1.11803
1.51167
1.3325
0.764424
1.25326
0.664535
1.51186
0.900703
1.00332
1.14642
0.838818
1.22732
0.927429
0.978298
1.17422
1.03027
0.767653
1.20122
0.953478
1.09358
0.63588
1.06103
1.50576
0.694582
1.41572
1.31818
1.35236
0.718487
1.48951
1.47287
0.85469
0.78948
0.740361
1.50993
0.831135
1.45295
1.51055
1.50685
1.49983
1.5072
0.760512
1.1091
1.50736
1.09647
1.06113
1.29089
0.676899
1.03187
1.39921
0.887744
1.08245
1.50502
1.05144
1.04672
0.804889
1.13082
1.42838
1.26373
0.708109
0.784898
0.914338
1.01959
1.15755
0.663732
0.785785
1.50104
1.23956
0.942344
0.993939
1.18791
0.730632
1.21311
0.970667
1.48288
1.50457
1.47298
0.753713
1.10393
1.50464
1.31242
1.49588
1.50211
1.49925
0.875686
1.50178
1.09512
1.48918
1.5019
1.36218
1.02318
1.04217
1.44997
1.05442
0.844658
0.699577
1.38832
0.775493
1.08404
1.49989
0.828715
1.12105
0.725641
1.28244
1.50261
1.1269
1.50107
0.674251
1.0441
0.907566
0.645996
0.748033
1.50117
1.49866
1.4624
1.49317
1.43465
1.14972
1.05523
1.49767
1.02631
1.25718
0.934719
1.01437
0.793329
1.17899
1.48564
1.05474
1.23221
1.04852
0.964343
0.990197
1.20702
0.772294
1.4969
1.32457
0.888382
0.711543
1.4936
1.49782
1.49673
0.740969
1.05795
1.34859
1.49634
1.49479
1.48965
0.870524
1.49242
1.09826
0.873984
1.00868
0.755995
0.699308
1.0421
1.48947
1.39451
1.04013
1.49311
0.657164
1.42764
1.2889
1.13383
1.06415
1.4603
0.925526
0.842399
0.81264
1.4775
1.16496
1.49195
1.27288
0.943685
1.02665
1.1839
1.24183
0.980083
1.01071
1.22585
0.735023
1.49563
1.49555
1.49399
0.78898
1.03154
1.49196
1.49319
1.00224
1.48956
1.31006
1.08097
1.03282
1.41121
1.06063
0.949667
0.91794
1.46843
0.778015
0.710151
0.834219
1.48231
1.48926
0.685803
1.12409
1.08687
1.35917
1.06177
1.47643
0.887106
1.49185
1.04841
1.49161
1.49046
0.746031
1.15819
1.48798
1.05026
1.38012
1.08672
1.26491
1.48881
1.48458
1.48919
0.986991
1.43534
1.48684
1.01247
0.96709
1.44838
0.871364
1.20233
0.811186
1.03746
1.07133
0.702434
1.00652
1.48379
1.22456
0.677464
0.733148
1.47953
1.4856
1.31977
0.687216
1.06983
0.933294
1.48952
0.788288
1.48901
1.46211
1.48818
1.40752
0.994908
1.46807
1.08023
1.48648
1.10169
1.48618
1.01188
1.1373
1.4834
0.856986
0.770599
1.04054
1.01882
1.3455
0.831492
1.16945
1.06734
1.27845
0.916579
0.718825
1.48066
0.980432
1.39092
1.02482
1.42206
0.736553
0.962958
0.706005
1.48627
1.45195
0.878563
1.07222
1.47289
1.48553
1.48201
1.48534
0.987258
1.00905
0.709148
1.20605
1.48395
1.48048
1.04011
1.48295
1.48231
1.01583
1.24186
1.02045
1.30577
1.48031
1.46596
0.964218
1.12609
0.855759
0.816739
1.09269
1.15854
1.47534
1.48478
1.48451
0.988605
0.778213
0.756985
1.04379
1.35488
1.48308
1.48348
1.01201
0.83559
1.19211
1.01545
1.05499
0.683471
1.03241
0.927961
0.715382
1.48203
1.47081
1.0241
1.37993
1.26579
1.47915
1.48015
1.44377
1.02889
1.42601
1.01199
0.905553
1.47607
1.05287
1.22991
0.968909
1.48199
1.48216
1.00094
1.3173
1.03843
1.45786
1.48123
1.48037
1.13414
1.47301
1.0203
0.978535
1.48001
1.47724
1.03576
1.02948
1.47867
0.877932
1.47764
1.11346
0.708733
1.17444
0.693347
0.824666
0.739025
1.46467
1.47581
0.760172
1.07371
0.803598
1.34147
1.19515
1.02689
0.866144
1.27863
1.05721
0.963524
0.958689
1.38509
1.48127
1.47375
1.48038
1.48077
1.44672
0.990923
1.41681
1.04073
0.905762
1.23797
1.47969
1.47824
1.00692
1.02624
1.02204
1.47846
1.46811
1.47504
0.741086
1.16138
1.4576
0.724257
1.30354
1.47366
0.742451
1.01004
1.00382
1.10578
0.94357
1.40097
1.04451
0.974128
1.47898
1.47835
1.47882
0.993078
1.46343
0.785608
1.02535
1.47783
0.853028
1.47611
1.46983
1.00812
0.875893
1.21845
1.01864
1.05881
1.47685
1.47472
1.47582
1.3505
0.808192
1.26349
1.47314
0.971561
1.43686
1.46652
0.930304
1.37042
0.942508
1.02789
0.685796
1.42323
0.967596
0.725143
1.0246
1.47057
0.765539
1.47664
1.4774
0.981828
1.01243
1.45072
1.47657
1.17369
0.9974
1.00592
1.47408
1.3134
1.47564
1.02186
1.12289
1.4682
1.45789
1.39627
0.958791
1.47073
1.07338
1.22552
0.927563
1.02764
0.858505
0.787851
0.954316
0.907113
1.27258
0.971039
1.01142
1.46203
1.47552
1.33702
1.47468
0.834522
0.753395
0.98433
0.696246
1.00302
1.00465
1.47504
0.745166
1.46905
0.996427
1.43999
1.47241
0.931023
1.47439
1.47284
1.37983
1.47364
1.41031
0.766739
1.15496
1.46462
0.932391
1.45134
1.20619
1.00969
0.95389
1.29841
1.46937
0.965713
1.47451
1.05365
1.00333
1.10568
1.47452
1.47295
0.978925
1.00071
0.988562
1.45734
1.47412
1.47053
0.784387
0.981998
1.47348
0.812475
1.46624
0.728669
1.25507
0.745986
0.886768
0.912384
1.46114
1.34563
0.917392
0.836782
0.944994
1.43376
1.00776
0.9985
1.36917
1.00226
0.958651
1.46366
0.966555
1.41001
1.4727
0.969556
1.00185
1.47309
1.47146
0.980593
1.46721
0.992301
1.16803
0.789208
1.47294
1.44533
1.46934
1.47254
1.47151
1.21633
1.30681
1.47205
1.06462
1.11848
0.912823
0.687467
1.46533
0.726834
1.45234
0.994909
0.93779
1.2633
0.950989
0.99365
1.47239
0.958202
1.47166
1.42268
0.989859
0.81267
1.45712
0.767449
0.965323
1.4725
0.979693
1.47008
0.888996
1.33137
0.941884
1.03765
1.47231
0.863027
1.4605
1.43767
1.46639
0.97214
1.46771
1.47189
1.37605
0.888949
0.922352
1.19783
1.39555
0.993212
0.939112
0.781392
1.14938
1.44618
0.789182
1.46289
0.69609
0.98438
0.745101
0.953394
1.47126
1.4705
1.29021
1.0976
1.245
0.976495
1.47149
0.963258
1.46909
1.45241
1.47143
1.47119
1.47071
1.46701
1.47096
0.880735
1.46456
0.836242
0.910441
1.45692
1.4216
0.767185
0.968101
0.927865
0.94352
1.3388
1.04837
0.916378
1.43129
1.4602
0.966621
0.998906
0.936481
1.47057
0.862161
1.47099
1.46954
0.958988
0.80392
0.947998
1.46258
0.7241
1.47108
1.20701
1.46791
1.36136
1.471
1.44069
1.15977
0.809743
0.863787
1.47082
1.10817
1.39839
1.2977
0.893703
1.46568
0.743789
1.25295
0.915083
0.96935
1.44801
0.962777
0.928672
1.46427
0.959469
1.46979
1.03028
0.937214
1.47025
1.46881
0.949577
1.45342
0.855055
1.47037
0.833023
1.41279
1.46735
0.789317
1.4704
0.67967
1.45749
1.43266
0.719624
1.32285
0.971206
1.47018
1.47115
0.915275
1.08598
1.47032
1.46053
0.882896
1.46544
0.952269
0.887262
0.996339
0.904441
1.18844
0.952461
1.23443
0.918002
0.865155
1.36724
1.44177
0.945317
1.13985
1.46982
1.46913
0.926481
1.46277
0.810249
0.935311
1.47002
1.46798
1.27981
0.764618
1.47008
1.38647
1.44864
1.46642
1.46999
1.46811
1.47039
0.887255
0.686628
0.785401
1.04479
0.950418
1.4538
0.905358
1.46438
0.852429
0.942168
0.846827
0.915183
1.45773
1.42618
1.41514
0.788394
1.46914
1.32958
1.46874
0.931806
1.09561
0.923314
1.4607
0.736535
1.46932
0.94166
0.970084
1.46757
0.879978
1.46963
1.19591
1.46289
1.02269
1.24095
1.46985
1.46624
1.43688
1.14834
1.47189
1.28634
0.852139
1.46729
0.871278
1.35278
0.836687
0.925725
0.889118
0.760841
1.4448
0.920523
0.706574
0.803542
0.899195
1.39121
1.46446
0.909768
0.902733
1.46812
1.46925
1.45079
1.07329
0.861004
1.46691
1.4681
1.46946
1.45547
1.47169
1.4655
1.45903
0.811413
1.42858
0.927676
1.40672
1.4617
1.31214
1.12661
0.872457
0.730377
0.915897
1.22187
0.903719
0.886847
0.936978
1.02453
0.996836
0.838875
1.17642
0.907503
0.893613
1.43865
1.26709
0.897978
1.46777
1.46857
0.660001
1.46364
1.35914
1.46673
1.47008
1.446
0.780599
1.46555
0.698084
0.907202
1.37981
1.45174
1.07949
0.900015
0.871697
1.46697
0.888358
1.45623
0.861035
0.87507
0.882976
1.46789
1.45967
1.42294
1.46712
1.46224
1.13288
1.31861
1.46991
0.807185
1.41123
1.22551
1.46624
0.74726
1.18239
0.666648
1.46402
0.864337
1.27081
0.895743
0.961593
1.43464
1.05301
0.992789
0.791255
1.46497
0.89566
0.863946
0.884227
1.44243
1.34376
0.874901
0.868461
1.46765
0.772838
1.46665
0.712222
1.44922
1.46654
1.38634
1.10887
1.46619
1.45438
1.45839
1.46141
1.46338
0.87012
1.46526
1.42653
0.81581
1.16079
0.828382
1.20612
1.29772
1.40356
0.865494
1.24937
0.669681
0.854704
0.737306
1.46976
1.05088
1.46718
1.43641
0.857471
0.951334
1.01863
0.919334
1.46596
0.850907
1.44407
1.35125
0.866049
0.789564
1.45061
1.46462
0.843169
0.699346
1.46481
1.11329
0.646878
1.4556
1.46369
0.839554
1.37456
1.4595
1.46211
1.46878
1.42292
1.16423
1.30512
1.21221
1.46704
0.81772
1.24019
1.4112
0.845185
0.750056
0.656249
1.43032
1.46484
1.08173
1.46448
0.877397
1.00485
0.969441
1.44083
0.907107
1.44858
1.33455
0.776439
0.664275
1.45411
0.710502
1.46309
1.45904
1.14124
1.46201
0.817795
0.808451
0.816225
1.46637
1.38301
1.19199
1.28646
1.25461
1.46423
1.43238
0.836907
1.40373
0.663363
0.73637
1.08315
0.780805
0.866842
1.44352
1.46367
1.01258
0.951543
0.921847
1.34319
1.45042
0.784044
0.787042
1.1502
0.625244
1.46092
1.1836
1.46562
1.46357
1.29525
1.24209
0.791354
1.45643
1.46369
1.42739
0.688705
1.04726
1.36976
0.815304
1.44189
1.12301
1.41263
1.32335
1.2071
0.616305
0.629343
0.974209
0.755868
0.893691
1.26891
1.43394
1.44716

SCALARS Mach float
LOOKUP_TABLE default
0.435067
1.2291
1.4817
1.18194
0.869495
1.80026
0.434888
1.78695
0.898821
1.51115
1.20887
1.45239
0.839203
1.15378
0.519158
1.76709
1.5426
0.806616
0.928481
0.581729
1.23753
1.73601
1.42223
1.57683
1.12367
0.770805
0.635508
1.69672
1.61402
0.73055
0.685127
1.65431
0.959257
1.26725
1.39082
1.09289
0.991416
1.29715
1.35909
1.06059
1.02616
1.32772
0.730511
0.433162
1.6797
0.882995
0.493642
1.4844
1.51405
1.7875
0.8538
0.558805
1.76714
0.670842
1.54557
0.822774
0.613173
1.17908
1.73699
1.57978
0.91195
0.788957
0.662962
1.69885
1.20855
1.45488
1.61693
0.751525
0.70948
1.65703
1.14827
0.506761
0.941285
1.23848
1.42483
1.11716
0.488647
0.970691
1.26859
1.39385
1.08723
1.75401
0.999666
1.29902
1.36196
1.05759
0.518067
0.49552
1.02714
1.33007
1.49649
1.77127
0.843742
0.565614
1.74372
1.52624
0.81293
0.781808
0.872823
0.614087
1.70923
1.55819
0.779557
0.660028
1.66969
1.59287
1.46751
0.743101
0.703199
1.63019
0.976787
1.17589
0.50612
0.901411
1.43809
1.20064
1.15021
1.77316
0.930243
1.40796
1.22839
0.542545
0.510425
1.11891
1.74364
1.49853
0.738162
0.82252
0.544634
0.852214
0.959469
0.589639
1.37744
1.25653
1.70993
1.08539
1.52856
0.989127
0.790693
1.3466
1.28586
1.05183
0.634755
1.46959
1.67201
1.01859
1.31569
1.56088
0.756159
0.677929
1.63313
1.5958
0.71856
1.17375
0.531012
0.530858
0.880713
1.4403
0.821982
1.75186
1.17165
1.14001
0.553756
1.71452
0.783514
0.812904
1.47641
0.534073
0.592563
0.909085
1.67746
1.41014
1.20012
1.50516
0.781836
1.10902
0.6339
1.64008
1.53553
0.538178
0.748326
0.674089
1.60338
1.56832
0.712335
0.937924
1.37953
1.22845
1.08164
0.841989
0.967412
1.34893
1.25776
0.877098
1.75941
1.05504
0.997916
1.31809
1.28744
1.02762
1.44789
0.545243
0.796418
0.57145
1.71829
0.547977
0.576739
0.560504
1.67978
0.869959
0.793585
0.614156
1.4797
1.64295
0.546908
0.556497
1.41868
1.50853
0.761849
0.653732
1.6069
1.16197
1.53913
0.727824
0.691707
1.57206
1.13797
0.823149
0.897725
0.851081
1.45138
1.38848
1.18456
1.7384
1.10562
0.92589
1.35788
1.21137
1.07242
0.80476
1.22365
0.56116
0.954575
1.32763
1.23925
1.04149
1.69041
0.983861
0.851189
1.29792
1.26832
1.01302
0.564907
0.568663
0.58235
1.6498
1.42262
0.564701
0.618255
1.61394
0.785882
1.48689
0.755457
0.65429
1.5798
1.5159
0.7231
0.565405
0.689283
1.54692
1.45941
0.867944
0.87857
1.13011
1.39292
0.831254
1.70032
1.16159
0.592511
0.814173
1.10034
0.583614
0.57847
1.33943
0.573389
1.43168
0.906109
1.65514
1.36241
1.18716
1.07624
0.578606
0.600671
1.61774
0.93411
1.3319
0.637065
1.21496
1.58371
1.05044
0.767405
0.904579
1.49061
1.463
0.736723
0.577175
0.671305
1.55103
0.962591
1.30212
1.51988
1.24335
0.704524
1.02146
0.991258
0.841286
1.27294
0.879621
1.40304
0.826335
0.796075
1.67595
0.586007
1.43591
0.583631
0.867793
1.12936
1.6289
0.586696
0.920256
1.37343
0.60991
0.585661
1.59177
1.14816
1.6925
1.0951
0.641183
1.55899
1.47026
0.823078
0.732834
0.672113
1.52793
1.49825
0.702696
0.894546
0.906094
1.34278
1.17115
0.592982
1.06444
1.40788
0.849422
0.762071
0.922038
1.31217
1.1973
1.03605
0.949918
1.28258
0.608795
1.22542
1.00728
1.44335
0.601498
0.978077
1.25393
0.596281
0.594674
1.63859
0.849319
0.597579
0.924808
1.3788
1.59724
0.605443
0.789013
0.629588
1.56313
0.59658
0.6581
1.67137
1.53196
1.41899
1.47393
0.716564
0.687292
1.50225
1.33571
0.890578
0.843891
1.12232
0.745609
0.875416
1.09745
1.34852
1.44676
0.600942
1.15002
0.599562
0.602732
1.07349
0.813918
0.600165
0.902199
1.31767
1.39014
1.61581
1.17464
1.04452
0.905645
0.929625
0.773027
0.60515
1.28735
1.20163
1.01408
1.57407
0.957427
1.25818
1.22997
0.985538
0.637036
1.42248
1.54051
0.86956
0.932448
0.618813
0.66122
0.839869
1.51039
0.71505
0.687566
1.48195
1.45396
0.605658
1.36262
1.63091
1.39487
0.621767
0.607688
0.610674
0.79771
0.615696
0.609154
0.61314
0.94944
1.39647
1.11213
0.8637
1.09077
0.742217
1.33129
1.5828
0.952802
1.42882
1.13323
1.06
0.860718
1.54598
0.630621
0.914584
0.613597
0.822471
0.890649
0.650793
1.29939
1.15631
1.51486
1.03071
0.674733
0.620046
1.48614
1.36865
0.700805
1.45799
0.917603
1.26895
1.18339
1.00059
0.770331
0.944715
1.23906
1.21092
0.972191
0.612298
1.61143
0.611521
0.614976
0.616267
1.40106
0.953094
0.614677
0.727336
0.846451
1.63877
1.43224
1.33946
0.957413
0.618859
1.56241
0.891876
0.785478
0.939082
1.52588
1.38437
0.637642
1.07318
0.654875
1.49542
1.11006
0.871058
0.620507
0.676118
1.46714
0.755264
1.3068
0.619168
0.631241
0.618934
0.632263
0.622725
0.700478
0.627186
1.40376
1.13592
0.994153
1.03814
0.622064
0.816146
1.44093
0.898176
1.57571
0.621853
1.27526
1.16021
1.00855
1.34827
0.924904
1.24466
1.18773
0.979704
0.884646
1.31559
0.951817
1.21532
0.950189
1.6169
0.933176
0.629238
1.53358
0.727917
0.831
0.795164
1.50103
0.647503
0.665963
1.32936
1.40894
1.47192
0.623975
1.35741
0.687867
0.62357
0.627497
0.635421
0.62723
1.44573
0.951002
0.627351
1.06099
1.09834
0.859235
1.55832
0.913304
0.745595
1.29041
0.970403
0.629989
0.973641
1.11372
1.38981
1.0249
0.714353
0.887323
1.51513
1.31181
1.25978
1.14294
0.997073
1.57653
1.41335
0.633991
0.912215
1.22799
1.17085
0.965513
1.48489
0.939542
1.19638
0.654423
0.630114
0.665351
1.45452
0.993466
0.630142
0.836717
0.640799
0.632823
0.636555
1.30428
0.633439
0.968925
0.647636
0.633448
0.784737
0.894837
0.958287
0.69073
0.998738
1.34118
1.52656
0.757115
1.42649
1.07387
0.635263
1.36021
1.03486
1.49139
0.867775
0.632561
0.965195
0.634092
1.56203
1.11633
1.26738
1.60483
1.46175
0.634374
0.636734
0.677341
0.643062
0.707501
1.00497
1.02165
0.638177
0.922749
0.893873
1.23638
1.14833
1.40406
0.974549
0.651157
0.973143
0.919588
1.01112
1.20319
1.17474
0.945588
1.43053
0.638638
0.824045
1.28951
1.51041
0.642508
0.637978
0.639071
1.47112
1.04594
0.798968
0.639633
0.641099
0.647735
1.18019
0.644188
1.05862
1.30611
0.914543
1.45168
1.5269
0.962473
0.646836
0.750496
1.03216
0.64292
1.58481
0.715036
0.86105
1.0214
0.989739
0.679255
1.24682
1.34381
1.37999
0.660569
0.989027
0.644326
0.877576
1.22643
1.13508
0.969397
0.909647
1.18582
1.15226
0.926059
1.47887
0.640483
0.640642
0.642129
1.40945
1.06612
0.644245
0.643193
0.955892
0.646775
0.839041
1.00251
1.00231
0.732819
0.996374
1.1124
1.25527
0.670557
1.42314
1.51237
1.35362
0.655241
0.647342
1.54562
1.03154
1.07057
0.787779
1.0973
0.661487
1.29099
0.64477
1.06422
0.644997
0.646191
1.46457
0.996063
0.648592
1.10943
0.765822
1.01095
0.885706
0.647821
0.653349
0.647342
0.943601
0.706667
0.650384
1.0018
1.19994
0.692661
1.30926
0.950418
1.38177
1.0216
1.0031
1.52281
1.15663
0.653603
0.927326
1.54055
1.48143
0.658134
0.651309
0.828951
1.54392
1.03647
1.23795
0.647397
1.41036
0.647884
0.677553
0.648715
0.736693
0.968637
0.671233
1.02049
0.650351
1.05528
0.650798
1.03028
1.01795
0.654052
1.32639
1.43266
1.05191
1.04697
0.802198
1.35704
0.984467
1.09147
0.871822
1.25681
1.50064
0.656945
1.18536
0.754425
1.137
0.721401
1.47705
1.13302
1.50714
0.65101
0.688773
1.30099
1.03324
0.665896
0.651532
0.655623
0.651983
0.945076
1.0104
1.51361
0.946609
0.653278
0.657852
1.06305
0.654315
0.655385
1.04838
0.909733
1.06336
0.843624
0.657395
0.673275
1.20315