# vtk DataFile Version 2.0
2D Unstructured Grid of Linear Triangles
ASCII

DATASET UNSTRUCTURED_GRID
POINTS 80 float
0.5 0 0.00
0.46194 0.191342 0.00
0.353553 0.353553 0.00
0.191342 0.46194 0.00
-2.18557e-08 0.5 0.00
-0.191342 0.46194 0.00
-0.353553 0.353553 0.00
-0.46194 0.191342 0.00
-0.5 -4.37114e-08 0.00
-0.46194 -0.191342 0.00
-0.353553 -0.353553 0.00
-0.191342 -0.46194 0.00
6.55671e-08 -0.5 0.00
0.191342 -0.46194 0.00
0.353553 -0.353553 0.00
0.46194 -0.191342 0.00
0.884503 0.175939 0.00
0.749846 0.501031 0.00
0.501031 0.749846 0.00
0.175939 0.884503 0.00
-0.175939 0.884503 0.00
-0.501031 0.749846 0.00
-0.749846 0.501031 0.00
-0.884503 0.175939 0.00
-0.884503 -0.175939 0.00
-0.749846 -0.501031 0.00
-0.501031 -0.749846 0.00
-0.175939 -0.884503 0.00
0.175939 -0.884503 0.00
0.501031 -0.749846 0.00
0.749846 -0.501031 0.00
0.884503 -0.175938 0.00
2.20148 0 0.00
2.0339 0.842468 0.00
1.55668 1.55668 0.00
0.842468 2.0339 0.00
-9.62295e-08 2.20148 0.00
-0.842468 2.0339 0.00
-1.55668 1.55668 0.00
-2.0339 0.842468 0.00
-2.20148 -1.92459e-07 0.00
-2.0339 -0.842468 0.00
-1.55668 -1.55668 0.00
-0.842468 -2.0339 0.00
2.88689e-07 -2.20148 0.00
0.842468 -2.0339 0.00
1.55668 -1.55668 0.00
2.0339 -0.842468 0.00
6.28184 1.24954 0.00
5.32549 3.55838 0.00
3.55838 5.32549 0.00
1.24954 6.28184 0.00
-1.24954 6.28184 0.00
-3.55838 5.32549 0.00
-5.32549 3.55838 0.00
-6.28184 1.24954 0.00
-6.28184 -1.24954 0.00
-5.32549 -3.55838 0.00
-3.55838 -5.32549 0.00
-1.24954 -6.28184 0.00
1.24954 -6.28184 0.00
3.55838 -5.32549 0.00
5.32549 -3.55838 0.00
6.28184 -1.24953 0.00
20.0001 0 0.00
18.4777 7.6537 0.00
14.1422 14.1422 0.00
7.6537 18.4777 0.00
-8.74231e-07 20.0001 0.00
-7.6537 18.4777 0.00
-14.1422 14.1422 0.00
-18.4777 7.65369 0.00
-20.0001 -1.74846e-06 0.00
-18.4777 -7.6537 0.00
-14.1422 -14.1422 0.00
-7.65369 -18.4777 0.00
2.62269e-06 -20.0001 0.00
7.6537 -18.4777 0.00
14.1422 -14.1422 0.00
18.4777 -7.65369 0.00

Cells 128 512
3 0 16 1
3 0 31 16
3 1 17 2
3 1 16 17
3 2 18 3
3 2 17 18
3 3 19 4
3 3 18 19
3 4 20 5
3 4 19 20
3 5 21 6
3 5 20 21
3 6 22 7
3 6 21 22
3 7 23 8
3 7 22 23
3 8 24 9
3 8 23 24
3 9 25 10
3 9 24 25
3 10 26 11
3 10 25 26
3 11 27 12
3 11 26 27
3 12 28 13
3 12 27 28
3 13 29 14
3 13 28 29
3 14 30 15
3 14 29 30
3 15 31 0
3 15 30 31
3 16 32 33
3 16 31 32
3 17 33 34
3 17 16 33
3 18 34 35
3 18 17 34
3 19 35 36
3 19 18 35
3 20 36 37
3 20 19 36
3 21 37 38
3 21 20 37
3 22 38 39
3 22 21 38
3 23 39 40
3 23 22 39
3 24 40 41
3 24 23 40
3 25 41 42
3 25 24 41
3 26 42 43
3 26 25 42
3 27 43 44
3 27 26 43
3 28 44 45
3 28 27 44
3 29 45 46
3 29 28 45
3 30 46 47
3 30 29 46
3 31 47 32
3 31 30 47
3 32 48 33
3 32 63 48
3 33 49 34
3 33 48 49
3 34 50 35
3 34 49 50
3 35 51 36
3 35 50 51
3 36 52 37
3 36 51 52
3 37 53 38
3 37 52 53
3 38 54 39
3 38 53 54
3 39 55 40
3 39 54 55
3 40 56 41
3 40 55 56
3 41 57 42
3 41 56 57
3 42 58 43
3 42 57 58
3 43 59 44
3 43 58 59
3 44 60 45
3 44 59 60
3 45 61 46
3 45 60 61
3 46 62 47
3 46 61 62
3 47 63 32
3 47 62 63
3 48 64 65
3 48 63 64
3 49 65 66
3 49 48 65
3 50 66 67
3 50 49 66
3 51 67 68
3 51 50 67
3 52 68 69
3 52 51 68
3 53 69 70
3 53 52 69
3 54 70 71
3 54 53 70
3 55 71 72
3 55 54 71
3 56 72 73
3 56 55 72
3 57 73 74
3 57 56 73
3 58 74 75
3 58 57 74
3 59 75 76
3 59 58 75
3 60 76 77
3 60 59 76
3 61 77 78
3 61 60 77
3 62 78 79
3 62 61 78
3 63 79 64
3 63 62 79

CELL_TYPES 128
5
5
5
5
5
5
5
5
5
5
5
5
5
5
5
5
5
5
5
5
5
5
5
5
5
5
5
5
5
5
5
5
5
5
5
5
5
5
5
5
5
5
5
5
5
5
5
5
5
5
5
5
5
5
5
5
5
5
5
5
5
5
5
5
5
5
5
5
5
5
5
5
5
5
5
5
5
5
5
5
5
5
5
5
5
5
5
5
5
5
5
5
5
5
5
5
5
5
5
5
5
5
5
5
5
5
5
5
5
5
5
5
5
5
5
5
5
5
5
5
5
5
5
5
5
5
5
5

CELL_DATA 128
SCALARS density float
LOOKUP_TABLE default
0.993478
1.00792
0.971342
1.01426
0.940892
1.00953
0.903251
0.985741
0.893936
0.950241
0.940966
0.936055
1.00925
0.951658
1.05434
0.973893
1.05434
0.984142
1.00925
0.973893
0.940966
0.951658
0.893935
0.936055
0.903251
0.950241
0.940892
0.985741
0.971342
1.00953
0.993478
1.01426
1.00475
0.973694
1.01897
0.980328
1.01078
0.976887
0.996989
0.974817
0.987328
0.977841
0.986632
0.992132
0.990627
1.01306
0.994671
1.02993
0.994671
1.03756
0.990627
1.02993
0.986632
1.01306
0.987328
0.992132
0.996989
0.977841
1.01078
0.974817
1.01897
0.976886
1.00475
0.980328
0.976507
0.98785
0.995052
1.0122
0.996286
1.00098
0.998117
0.996543
1.00084
0.994128
1.00485
0.995386
1.00835
0.997653
1.01001
0.999739
1.01001
1.00051
1.00835
0.999739
1.00485
0.997653
1.00084
0.995386
0.998116
0.994128
0.996286
0.996543
0.995052
1.00098
0.976507
1.0122
0.99706
0.967981
0.996937
0.998179
0.997356
0.998787
0.999212
1.00069
1.00068
1.00143
1.0015
1.00245
1.00215
1.00342
1.0024
1.0041
1.0024
1.00414
1.00215
1.0041
1.0015
1.00342
1.00068
1.00245
0.999212
1.00143
0.997356
1.00069
0.996937
0.998787
0.99706
0.998179

SCALARS Mach float
LOOKUP_TABLE default
0.0319233
0.0260406
0.152096
0.12084
0.301551
0.240241
0.443167
0.368092
0.504177
0.460046
0.437065
0.465393
0.289363
0.379449
0.12406
0.254832
0.12406
0.185385
0.289363
0.254832
0.437066
0.37945
0.504177
0.465393
0.443167
0.460046
0.301551
0.368092
0.152096
0.240242
0.0319232
0.12084
0.173212
0.0830971
0.326392
0.218942
0.39225
0.33544
0.419581
0.406968
0.414464
0.432477
0.385794
0.410822
0.351142
0.35907
0.330743
0.307712
0.330744
0.29117
0.351143
0.307712
0.385794
0.359071
0.414464
0.410822
0.419581
0.432477
0.39225
0.406968
0.326392
0.33544
0.173212
0.218942
0.226144
0.212727
0.39373
0.363583
0.40203
0.402389
0.402546
0.399459
0.392674
0.393093
0.379181
0.384795
0.367412
0.376663
0.361315
0.371018
0.361315
0.36859
0.367412
0.371018
0.379181
0.376663
0.392674
0.384795
0.402546
0.393093
0.40203
0.399459
0.39373
0.402389
0.226144
0.363583
0.361348
0.24975
0.39613
0.407589
0.389272
0.397304
0.384038
0.389361
0.380895
0.384281
0.379043
0.380889
0.377666
0.377944
0.376782
0.375992
0.376782
0.374635
0.377666
0.375992
0.379043
0.377944
0.380895
0.380889
0.384038
0.384281
0.389272
0.389361
0.39613
0.397305
0.361347
0.407589

SCALARS pressure float
LOOKUP_TABLE default
4.99703
5.07068
4.88501
5.14613
4.65562
5.08891
4.38385
4.90064
4.30432
4.65114
4.60369
4.56657
5.05925
4.6904
5.36953
4.84931
5.36953
4.90867
5.05925
4.84931
4.60369
4.69039
4.30432
4.56657
4.38385
4.65114
4.65562
4.90064
4.88501
5.08891
4.99703
5.14613
5.05354
4.85603
5.09221
4.91024
5.00719
4.83712
4.91197
4.79535
4.85443
4.80104
4.85799
4.89446
4.89116
5.03684
4.91684
5.14988
4.91684
5.18545
4.89116
5.14988
4.85799
5.03684
4.85443
4.89446
4.91197
4.80104
5.00719
4.79535
5.09221
4.83712
5.05354
4.91024
4.86973
4.93879
4.91396
5.03473
4.91725
4.94441
4.92807
4.91992
4.94799
4.90759
4.97668
4.91791
5.00168
4.93456
5.01367
4.94959
5.01367
4.95637
5.00168
4.94959
4.97668
4.93456
4.94799
4.91791
4.92807
4.90759
4.91725
4.91992
4.91396
4.94441
4.86973
5.03473
4.94188
4.80974
4.92094
4.92363
4.92746
4.93268
4.94034
4.94768
4.95025
4.9539
4.95593
4.96121
4.96031
4.96797
4.96264
4.97261
4.96264
4.97472
4.96031
4.97261
4.95593
4.96797
4.95025
4.96121
4.94034
4.9539
4.92746
4.94768
4.92094
4.93268
4.94188
4.92363

SCALARS entropy float
LOOKUP_TABLE default
5.04302
5.015
5.08796
5.04513
5.07016
5.02178
5.05503
5.00017
5.03588
4.99565
5.01306
5.00919
4.99446
5.02731
4.98615
5.03227
4.98615
5.01976
4.99446
5.03227
5.01306
5.02731
5.03588
5.00919
5.05503
4.99565
5.07016
5.00017
5.08796
5.02178
5.04302
5.04513
5.02009
5.04069
4.95997
5.04874
4.93258
4.9981
4.93275
4.96968
4.94188
4.95405
4.95039
4.94888
4.95607
4.94616
4.95376
4.94155
4.95376
4.9246
4.95607
4.94155
4.95039
4.94616
4.94188
4.94888
4.93275
4.95405
4.93258
4.96968
4.95997
4.9981
5.02009
5.04874
5.03454
5.02404
4.94821
4.94995
4.94293
4.9376
4.94109
4.94383
4.94217
4.94822
4.94308
4.94985
4.94378
4.95082
4.94427
4.95139
4.94427
4.95282
4.94378
4.95139
4.94308
4.95082
4.94217
4.94985
4.94109
4.94822
4.94293
4.94383
4.94821
4.9376
5.03454
4.94995
4.9623
5.03394
4.94212
4.9362
4.94575
4.94107
4.9458
4.94291
4.94556
4.94396
4.94551
4.94421
4.94541
4.94428
4.94602
4.94417
4.94602
4.94605
4.94541
4.94417
4.94551
4.94428
4.94556
4.94421
4.9458
4.94396
4.94575
4.94291
4.94212
4.94107
4.9623
4.9362

SCALARS entropyprod float
LOOKUP_TABLE default
0.0964397
0.0684246
0.141388
0.0985504
0.123583
0.0752033
0.108457
0.053595
0.089305
0.049075
0.0664814
0.0626158
0.0478824
0.0807369
0.0395725
0.0856928
0.0395725
0.0731819
0.0478824
0.0856928
0.0664814
0.0807369
0.089305
0.0626158
0.108457
0.049075
0.123583
0.053595
0.141388
0.0752033
0.0964398
0.0985504
0.0735131
0.0941156
0.013394
0.102162
-0.0140005
0.0515246
-0.0138303
0.0231006
-0.00469903
0.0074726
0.00381243
0.00230781
0.00949397
-0.000420466
0.00718131
-0.0050223
0.0071813
-0.0219797
0.00949395
-0.00502234
0.0038124
-0.000420488
-0.00469906
0.00230779
-0.0138303
0.00747259
-0.0140006
0.0231006
0.0133939
0.0515246
0.0735131
0.102162
0.0879616
0.0774586
0.00162915
0.00337618
-0.00365111
-0.00897266
-0.00548673
-0.00274486
-0.00440887
0.00163851
-0.00350078
0.00327405
-0.00279277
0.00424566
-0.00230734
0.00481574
-0.00230734
0.00624023
-0.00279277
0.00481575
-0.00350078
0.00424567
-0.00440887
0.00327406
-0.00548673
0.00163852
-0.00365111
-0.00274485
0.00162908
-0.00897266
0.0879617
0.00337626
0.0157234
0.0873677
-0.00445722
-0.0103753
-0.000822189
-0.00550655
-0.000779183
-0.00367155
-0.00101866
-0.0026139
-0.00106477
-0.00236964
-0.00116695
-0.00229752
-0.000552557
-0.00240771
-0.000552558
-0.00052269
-0.00116695
-0.00240771
-0.00106477
-0.00229752
-0.00101866
-0.00236964
-0.000779185
-0.0026139
-0.000822185
-0.00367155
-0.00445726
-0.00550658
0.0157235
-0.0103751

VECTORS velocity float
0.0783652 -0.0321734 0
0.0691091 -2.07003e-08 0
0.337396 -0.221448 0
0.315657 -0.0639211 0
0.741835 -0.28214 0
0.620932 -0.147503 0
1.15196 -0.0864098 0
0.96932 -0.0588086 0
1.27451 0.298581 0
1.19123 0.176792 0
0.985254 0.58113 0
1.13829 0.428485 0
0.542659 0.541432 0
0.862348 0.499847 0
0.248495 0.219056 0
0.587232 0.328409 0
0.248495 -0.219057 0
0.489881 -1.65973e-07 0
0.542659 -0.541433 0
0.587232 -0.328409 0
0.985255 -0.58113 0
0.862348 -0.499848 0
1.27451 -0.298581 0
1.13829 -0.428485 0
1.15196 0.0864099 0
1.19123 -0.176792 0
0.741836 0.282141 0
0.96932 0.0588087 0
0.337396 0.221449 0
0.620932 0.147503 0
0.078365 0.0321736 0
0.315656 0.0639214 0
0.459167 -0.0206418 0
0.219573 -6.49502e-08 0
0.86308 0.0206104 0
0.579154 -0.0268219 0
1.03266 0.0261948 0
0.881177 -0.059486 0
1.09895 0.0813489 0
1.06795 0.0104654 0
1.0787 0.137287 0
1.1277 0.118069 0
1.0001 0.160578 0
1.05969 0.206677 0
0.914851 0.123912 0
0.922088 0.217264 0
0.868935 0.0445955 0
0.802766 0.135651 0
0.868935 -0.0445957 0
0.770192 -1.264e-07 0
0.914852 -0.123913 0
0.802766 -0.135651 0
1.0001 -0.160579 0
0.922088 -0.217264 0
1.0787 -0.137288 0
1.05969 -0.206677 0
1.09895 -0.0813489 0
1.1277 -0.118069 0
1.03266 -0.0261948 0
1.06795 -0.0104654 0
0.86308 -0.0206104 0
0.881177 0.059486 0
0.459167 0.020642 0
0.579153 0.0268221 0
0.597536 0.00040124 0
0.562795 -3.08652e-07 0
1.03438 0.0430114 0
0.958072 0.0513725 0
1.05618 0.0359462 0
1.05764 0.0335218 0
1.05708 0.0516105 0
1.04966 0.0332934 0
1.0313 0.0603913 0
1.03284 0.0343417 0
0.996714 0.0589764 0
1.01134 0.0370486 0
0.967326 0.0413432 0
0.990712 0.0303918 0
0.952396 0.0141795 0
0.976652 0.0162015 0
0.952396 -0.0141796 0
0.970685 -3.21138e-08 0
0.967326 -0.0413433 0
0.976652 -0.0162016 0
0.996714 -0.0589765 0
0.990712 -0.0303918 0
1.0313 -0.0603914 0
1.01134 -0.0370486 0
1.05708 -0.0516105 0
1.03284 -0.0343416 0
1.05618 -0.0359462 0
1.04966 -0.0332933 0
1.03438 -0.0430115 0
1.05764 -0.0335218 0
0.597535 -0.000401351 0
0.958071 -0.0513725 0
0.951742 -0.0152017 0
0.658714 -5.20447e-08 0
1.04123 -0.0149762 0
1.07103 0.0110581 0
1.02377 -0.00230164 0
1.04462 0.0129791 0
1.01038 0.00298706 0
1.0243 0.0142073 0
1.00237 0.00607631 0
1.01123 0.0106093 0
0.997654 0.00622665 0
1.00253 0.0115285 0
0.994157 0.00456007 0
0.99499 0.00962823 0
0.99195 0.00171152 0
0.990007 0.00536709 0
0.99195 -0.00171153 0
0.986645 -1.10348e-08 0
0.994157 -0.00456007 0
0.990007 -0.0053671 0
0.997654 -0.00622665 0
0.99499 -0.00962823 0
1.00237 -0.0060763 0
1.00253 -0.0115285 0
1.01038 -0.00298705 0
1.01123 -0.0106093 0
1.02377 0.00230165 0
1.0243 -0.0142072 0
1.04123 0.0149762 0
1.04462 -0.0129792 0
0.951742 0.0152019 0
1.07103 -0.0110579 0


POINT_DATA 80
SCALARS densitynode float
LOOKUP_TABLE default
0.995514
0.986901
0.963648
0.931049
0.905875
0.920074
0.971801
1.02363
1.04444
1.02363
0.971801
0.920074
0.905875
0.931049
0.963648
0.986901
0.999264
0.996548
0.982117
0.958889
0.945899
0.959682
0.98748
1.00776
1.00776
0.98748
0.959682
0.945899
0.958889
0.982117
0.996548
0.999264
0.991868
1.00039
1.00287
0.996642
0.99124
0.991892
0.997585
1.00354
1.00626
1.00354
0.997585
0.991892
0.99124
0.996642
1.00287
1.00039
0.992015
1.00223
0.998447
0.997283
0.997727
0.999673
1.00171
1.00288
1.00288
1.00171
0.999673
0.997726
0.997283
0.998447
1.00223
0.992015
0.989983
0.997286
0.997546
0.99887
1.00031
1.00142
1.00222
1.00272
1.00282
1.00272
1.00222
1.00142
1.00031
0.99887
0.997546
0.997286

SCALARS Machnode float
LOOKUP_TABLE default
0.0310938
0.0960746
0.228715
0.371757
0.471751
0.469884
0.365503
0.213496
0.132706
0.213496
0.365504
0.469884
0.471751
0.371757
0.228715
0.0960746
0.0896403
0.20678
0.324929
0.421549
0.458331
0.414271
0.31758
0.226534
0.226534
0.31758
0.414271
0.458332
0.42155
0.32493
0.20678
0.0896402
0.170542
0.264014
0.365906
0.404933
0.414205
0.398084
0.36828
0.341731
0.332388
0.341731
0.368281
0.398084
0.414205
0.404933
0.365906
0.264014
0.289928
0.389833
0.398827
0.394671
0.387788
0.380074
0.373578
0.369864
0.369864
0.373578
0.380074
0.387788
0.394671
0.398827
0.389833
0.289928
0.334187
0.38576
0.393822
0.387313
0.382908
0.380193
0.378254
0.376924
0.37626
0.376924
0.378254
0.380193
0.382908
0.387313
0.393822
0.38576

SCALARS pressurenode float
LOOKUP_TABLE default
5.00741
4.96994
4.81524
4.57344
4.38738
4.46987
4.81158
5.16291
5.30455
5.16291
4.81158
4.46987
4.38738
4.57344
4.81524
4.96994
5.03039
5.01295
4.8865
4.71166
4.61943
4.71663
4.91051
5.0463
5.0463
4.91051
4.71663
4.61942
4.71166
4.8865
5.01295
5.03039
4.97025
5.00116
4.97506
4.91895
4.88151
4.89009
4.93302
4.97458
4.98975
4.97458
4.93302
4.89009
4.88151
4.91895
4.97506
5.00116
4.93751
4.95893
4.93094
4.92578
4.93081
4.94519
4.95984
4.96884
4.96884
4.95984
4.94519
4.93081
4.92578
4.93094
4.95893
4.93751
4.90972
4.92952
4.92626
4.93725
4.94739
4.95506
4.96052
4.96419
4.96558
4.96419
4.96052
4.95506
4.94739
4.93725
4.92626
4.92952

VECTORS velocitynode float
0.0175942 1.12985e-07 0
0.137097 -0.161441 0
0.452466 -0.338081 0
0.895961 -0.288961 0
1.20211 0.0384669 0
1.11945 0.442557 0
0.708803 0.611431 0
0.284225 0.425664 0
0.1132 -2.17853e-07 0
0.284225 -0.425665 0
0.708803 -0.611431 0
1.11945 -0.442557 0
1.20211 -0.0384667 0
0.895961 0.288961 0
0.452466 0.338081 0
0.137097 0.161442 0
0.234994 -0.0269664 0
0.528614 -0.106079 0
0.841573 -0.112229 0
1.09988 0.0326374 0
1.16459 0.25853 0
0.995111 0.409264 0
0.732721 0.36553 0
0.559651 0.145016 0
0.559651 -0.145017 0
0.732722 -0.36553 0
0.995112 -0.409265 0
1.16459 -0.258531 0
1.09988 -0.0326373 0
0.841573 0.112229 0
0.528614 0.106079 0
0.234993 0.0269665 0
0.451466 1.77587e-08 0
0.697492 0.0028484 0
0.963393 0.0122669 0
1.06324 0.0424071 0
1.0829 0.0948316 0
1.03592 0.13342 0
0.958299 0.129292 0
0.895375 0.0773299 0
0.875041 -1.05418e-07 0
0.895375 -0.0773301 0
0.9583 -0.129292 0
1.03592 -0.13342 0
1.0829 -0.0948316 0
1.06324 -0.0424071 0
0.963393 -0.0122669 0
0.697492 -0.00284836 0
0.76461 0.0144871 0
1.02522 0.0327299 0
1.04828 0.0275659 0
1.03728 0.030649 0
1.01935 0.033145 0
0.999573 0.0317104 0
0.983241 0.0220706 0
0.974046 0.00766283 0
0.974046 -0.00766288 0
0.983241 -0.0220706 0
0.999574 -0.0317105 0
1.01935 -0.033145 0
1.03728 -0.030649 0
1.04828 -0.0275659 0
1.02522 -0.0327298 0
0.764609 -0.0144873 0
0.880426 7.24386e-08 0
1.01463 -0.00872532 0
1.03545 -0.00337756 0
1.01883 0.00371704 0
1.00756 0.00601085 0
1.00062 0.00746013 0
0.995683 0.00642403 0
0.992312 0.00367884 0
0.990659 -6.20126e-09 0
0.992312 -0.00367885 0
0.995683 -0.00642403 0
1.00062 -0.00746013 0
1.00756 -0.00601083 0
1.01883 -0.00371701 0
1.03545 0.00337754 0
1.01463 0.00872544 0

