# vtk DataFile Version 2.0
2D Unstructured Grid of Linear Triangles
ASCII

DATASET UNSTRUCTURED_GRID
POINTS 288 float
0.5 0 0.00
0.490393 0.0975452 0.00
0.46194 0.191342 0.00
0.415735 0.277785 0.00
0.353553 0.353553 0.00
0.277785 0.415735 0.00
0.191342 0.46194 0.00
0.0975451 0.490393 0.00
-2.18557e-08 0.5 0.00
-0.0975452 0.490393 0.00
-0.191342 0.46194 0.00
-0.277785 0.415735 0.00
-0.353553 0.353553 0.00
-0.415735 0.277785 0.00
-0.46194 0.191342 0.00
-0.490393 0.0975451 0.00
-0.5 -4.37114e-08 0.00
-0.490393 -0.0975452 0.00
-0.46194 -0.191342 0.00
-0.415735 -0.277785 0.00
-0.353553 -0.353553 0.00
-0.277785 -0.415735 0.00
-0.191342 -0.46194 0.00
-0.0975451 -0.490393 0.00
6.55671e-08 -0.5 0.00
0.0975452 -0.490393 0.00
0.191342 -0.46194 0.00
0.277785 -0.415735 0.00
0.353553 -0.353553 0.00
0.415735 -0.277785 0.00
0.46194 -0.191342 0.00
0.490393 -0.0975451 0.00
0.640494 0.0630831 0.00
0.61588 0.186825 0.00
0.567598 0.303387 0.00
0.497504 0.408291 0.00
0.408291 0.497504 0.00
0.303387 0.567598 0.00
0.186825 0.61588 0.00
0.0630831 0.640494 0.00
-0.0630831 0.640494 0.00
-0.186825 0.61588 0.00
-0.303387 0.567598 0.00
-0.408291 0.497504 0.00
-0.497504 0.408291 0.00
-0.567598 0.303387 0.00
-0.61588 0.186825 0.00
-0.640494 0.0630831 0.00
-0.640494 -0.0630832 0.00
-0.61588 -0.186825 0.00
-0.567598 -0.303388 0.00
-0.497504 -0.408291 0.00
-0.408291 -0.497504 0.00
-0.303387 -0.567598 0.00
-0.186825 -0.61588 0.00
-0.063083 -0.640494 0.00
0.0630832 -0.640494 0.00
0.186825 -0.61588 0.00
0.303388 -0.567598 0.00
0.408291 -0.497504 0.00
0.497504 -0.408291 0.00
0.567598 -0.303387 0.00
0.61588 -0.186825 0.00
0.640494 -0.063083 0.00
0.901832 0 0.00
0.884503 0.175939 0.00
0.833184 0.345116 0.00
0.749846 0.501031 0.00
0.637691 0.637691 0.00
0.501031 0.749846 0.00
0.345116 0.833184 0.00
0.175939 0.884503 0.00
-3.94203e-08 0.901832 0.00
-0.175939 0.884503 0.00
-0.345116 0.833184 0.00
-0.501031 0.749846 0.00
-0.637691 0.637691 0.00
-0.749846 0.501031 0.00
-0.833184 0.345116 0.00
-0.884503 0.175939 0.00
-0.901832 -7.88406e-08 0.00
-0.884503 -0.175939 0.00
-0.833184 -0.345116 0.00
-0.749846 -0.501031 0.00
-0.637691 -0.637691 0.00
-0.501031 -0.749846 0.00
-0.345116 -0.833184 0.00
-0.175939 -0.884503 0.00
1.18261e-07 -0.901832 0.00
0.175939 -0.884503 0.00
0.345116 -0.833184 0.00
0.501031 -0.749846 0.00
0.637691 -0.637691 0.00
0.749846 -0.501031 0.00
0.833184 -0.345116 0.00
0.884503 -0.175938 0.00
1.35967 0.133916 0.00
1.30742 0.396602 0.00
1.20493 0.644047 0.00
1.05613 0.866742 0.00
0.866742 1.05613 0.00
0.644047 1.20493 0.00
0.396602 1.30742 0.00
0.133916 1.35967 0.00
-0.133916 1.35967 0.00
-0.396602 1.30742 0.00
-0.644047 1.20493 0.00
-0.866742 1.05613 0.00
-1.05613 0.866742 0.00
-1.20493 0.644047 0.00
-1.30742 0.396602 0.00
-1.35967 0.133916 0.00
-1.35967 -0.133916 0.00
-1.30742 -0.396602 0.00
-1.20493 -0.644047 0.00
-1.05613 -0.866742 0.00
-0.866742 -1.05613 0.00
-0.644047 -1.20493 0.00
-0.396602 -1.30742 0.00
-0.133916 -1.35967 0.00
0.133916 -1.35967 0.00
0.396602 -1.30742 0.00
0.644047 -1.20493 0.00
0.866742 -1.05613 0.00
1.05613 -0.866742 0.00
1.20493 -0.644047 0.00
1.30742 -0.396602 0.00
1.35967 -0.133916 0.00
2.20148 0 0.00
2.15917 0.429487 0.00
2.0339 0.842468 0.00
1.83046 1.22307 0.00
1.55668 1.55668 0.00
1.22307 1.83046 0.00
0.842468 2.0339 0.00
0.429486 2.15917 0.00
-9.62295e-08 2.20148 0.00
-0.429487 2.15917 0.00
-0.842468 2.0339 0.00
-1.22307 1.83046 0.00
-1.55668 1.55668 0.00
-1.83046 1.22307 0.00
-2.0339 0.842468 0.00
-2.15917 0.429486 0.00
-2.20148 -1.92459e-07 0.00
-2.15917 -0.429487 0.00
-2.0339 -0.842468 0.00
-1.83046 -1.22307 0.00
-1.55668 -1.55668 0.00
-1.22307 -1.83046 0.00
-0.842468 -2.0339 0.00
-0.429486 -2.15917 0.00
2.88689e-07 -2.20148 0.00
0.429487 -2.15917 0.00
0.842468 -2.0339 0.00
1.22307 -1.83046 0.00
1.55668 -1.55668 0.00
1.83046 -1.22307 0.00
2.0339 -0.842468 0.00
2.15917 -0.429486 0.00
3.68572 0.363012 0.00
3.54408 1.07508 0.00
3.26624 1.74584 0.00
2.86288 2.34951 0.00
2.34951 2.86288 0.00
1.74584 3.26624 0.00
1.07508 3.54408 0.00
0.363011 3.68572 0.00
-0.363012 3.68572 0.00
-1.07508 3.54408 0.00
-1.74584 3.26624 0.00
-2.34951 2.86288 0.00
-2.86288 2.34951 0.00
-3.26624 1.74584 0.00
-3.54408 1.07508 0.00
-3.68572 0.363011 0.00
-3.68572 -0.363012 0.00
-3.54408 -1.07508 0.00
-3.26624 -1.74584 0.00
-2.86288 -2.34951 0.00
-2.34951 -2.86288 0.00
-1.74584 -3.26624 0.00
-1.07508 -3.54408 0.00
-0.363011 -3.68572 0.00
0.363012 -3.68572 0.00
1.07508 -3.54408 0.00
1.74584 -3.26624 0.00
2.34951 -2.86288 0.00
2.86288 -2.34951 0.00
3.26624 -1.74584 0.00
3.54408 -1.07508 0.00
3.68572 -0.363011 0.00
6.40491 0 0.00
6.28184 1.24954 0.00
5.91737 2.45105 0.00
5.32549 3.55838 0.00
4.52896 4.52896 0.00
3.55838 5.32549 0.00
2.45105 5.91737 0.00
1.24954 6.28184 0.00
-2.79968e-07 6.40491 0.00
-1.24954 6.28184 0.00
-2.45105 5.91737 0.00
-3.55838 5.32549 0.00
-4.52896 4.52896 0.00
-5.32549 3.55838 0.00
-5.91737 2.45105 0.00
-6.28184 1.24954 0.00
-6.40491 -5.59935e-07 0.00
-6.28184 -1.24954 0.00
-5.91737 -2.45105 0.00
-5.32549 -3.55838 0.00
-4.52896 -4.52896 0.00
-3.55838 -5.32549 0.00
-2.45105 -5.91737 0.00
-1.24954 -6.28184 0.00
8.39903e-07 -6.40491 0.00
1.24954 -6.28184 0.00
2.45105 -5.91737 0.00
3.55838 -5.32549 0.00
4.52896 -4.52895 0.00
5.32549 -3.55838 0.00
5.91737 -2.45105 0.00
6.28184 -1.24953 0.00
11.2088 1.10397 0.00
10.7781 3.2695 0.00
9.93314 5.30938 0.00
8.70647 7.14522 0.00
7.14522 8.70647 0.00
5.30938 9.93314 0.00
3.2695 10.7781 0.00
1.10397 11.2088 0.00
-1.10397 11.2088 0.00
-3.2695 10.7781 0.00
-5.30938 9.93314 0.00
-7.14522 8.70647 0.00
-8.70647 7.14522 0.00
-9.93315 5.30938 0.00
-10.7781 3.2695 0.00
-11.2088 1.10397 0.00
-11.2088 -1.10398 0.00
-10.7781 -3.2695 0.00
-9.93314 -5.30938 0.00
-8.70647 -7.14522 0.00
-7.14522 -8.70648 0.00
-5.30938 -9.93315 0.00
-3.2695 -10.7781 0.00
-1.10397 -11.2088 0.00
1.10398 -11.2088 0.00
3.2695 -10.7781 0.00
5.30938 -9.93314 0.00
7.14522 -8.70647 0.00
8.70648 -7.14522 0.00
9.93315 -5.30937 0.00
10.7781 -3.2695 0.00
11.2088 -1.10397 0.00
20.0001 0 0.00
19.6158 3.90182 0.00
18.4777 7.6537 0.00
16.6295 11.1114 0.00
14.1422 14.1422 0.00
11.1114 16.6295 0.00
7.6537 18.4777 0.00
3.90182 19.6158 0.00
-8.74231e-07 20.0001 0.00
-3.90182 19.6158 0.00
-7.6537 18.4777 0.00
-11.1114 16.6295 0.00
-14.1422 14.1422 0.00
-16.6295 11.1114 0.00
-18.4777 7.65369 0.00
-19.6158 3.90182 0.00
-20.0001 -1.74846e-06 0.00
-19.6158 -3.90182 0.00
-18.4777 -7.6537 0.00
-16.6295 -11.1114 0.00
-14.1422 -14.1422 0.00
-11.1114 -16.6295 0.00
-7.65369 -18.4777 0.00
-3.90182 -19.6158 0.00
2.62269e-06 -20.0001 0.00
3.90182 -19.6158 0.00
7.6537 -18.4777 0.00
11.1114 -16.6295 0.00
14.1422 -14.1422 0.00
16.6295 -11.1114 0.00
18.4777 -7.65369 0.00
19.6158 -3.90182 0.00

Cells 512 2048
3 0 32 1
3 0 63 32
3 1 33 2
3 1 32 33
3 2 34 3
3 2 33 34
3 3 35 4
3 3 34 35
3 4 36 5
3 4 35 36
3 5 37 6
3 5 36 37
3 6 38 7
3 6 37 38
3 7 39 8
3 7 38 39
3 8 40 9
3 8 39 40
3 9 41 10
3 9 40 41
3 10 42 11
3 10 41 42
3 11 43 12
3 11 42 43
3 12 44 13
3 12 43 44
3 13 45 14
3 13 44 45
3 14 46 15
3 14 45 46
3 15 47 16
3 15 46 47
3 16 48 17
3 16 47 48
3 17 49 18
3 17 48 49
3 18 50 19
3 18 49 50
3 19 51 20
3 19 50 51
3 20 52 21
3 20 51 52
3 21 53 22
3 21 52 53
3 22 54 23
3 22 53 54
3 23 55 24
3 23 54 55
3 24 56 25
3 24 55 56
3 25 57 26
3 25 56 57
3 26 58 27
3 26 57 58
3 27 59 28
3 27 58 59
3 28 60 29
3 28 59 60
3 29 61 30
3 29 60 61
3 30 62 31
3 30 61 62
3 31 63 0
3 31 62 63
3 32 64 65
3 32 63 64
3 33 65 66
3 33 32 65
3 34 66 67
3 34 33 66
3 35 67 68
3 35 34 67
3 36 68 69
3 36 35 68
3 37 69 70
3 37 36 69
3 38 70 71
3 38 37 70
3 39 71 72
3 39 38 71
3 40 72 73
3 40 39 72
3 41 73 74
3 41 40 73
3 42 74 75
3 42 41 74
3 43 75 76
3 43 42 75
3 44 76 77
3 44 43 76
3 45 77 78
3 45 44 77
3 46 78 79
3 46 45 78
3 47 79 80
3 47 46 79
3 48 80 81
3 48 47 80
3 49 81 82
3 49 48 81
3 50 82 83
3 50 49 82
3 51 83 84
3 51 50 83
3 52 84 85
3 52 51 84
3 53 85 86
3 53 52 85
3 54 86 87
3 54 53 86
3 55 87 88
3 55 54 87
3 56 88 89
3 56 55 88
3 57 89 90
3 57 56 89
3 58 90 91
3 58 57 90
3 59 91 92
3 59 58 91
3 60 92 93
3 60 59 92
3 61 93 94
3 61 60 93
3 62 94 95
3 62 61 94
3 63 95 64
3 63 62 95
3 64 96 65
3 64 127 96
3 65 97 66
3 65 96 97
3 66 98 67
3 66 97 98
3 67 99 68
3 67 98 99
3 68 100 69
3 68 99 100
3 69 101 70
3 69 100 101
3 70 102 71
3 70 101 102
3 71 103 72
3 71 102 103
3 72 104 73
3 72 103 104
3 73 105 74
3 73 104 105
3 74 106 75
3 74 105 106
3 75 107 76
3 75 106 107
3 76 108 77
3 76 107 108
3 77 109 78
3 77 108 109
3 78 110 79
3 78 109 110
3 79 111 80
3 79 110 111
3 80 112 81
3 80 111 112
3 81 113 82
3 81 112 113
3 82 114 83
3 82 113 114
3 83 115 84
3 83 114 115
3 84 116 85
3 84 115 116
3 85 117 86
3 85 116 117
3 86 118 87
3 86 117 118
3 87 119 88
3 87 118 119
3 88 120 89
3 88 119 120
3 89 121 90
3 89 120 121
3 90 122 91
3 90 121 122
3 91 123 92
3 91 122 123
3 92 124 93
3 92 123 124
3 93 125 94
3 93 124 125
3 94 126 95
3 94 125 126
3 95 127 64
3 95 126 127
3 96 128 129
3 96 127 128
3 97 129 130
3 97 96 129
3 98 130 131
3 98 97 130
3 99 131 132
3 99 98 131
3 100 132 133
3 100 99 132
3 101 133 134
3 101 100 133
3 102 134 135
3 102 101 134
3 103 135 136
3 103 102 135
3 104 136 137
3 104 103 136
3 105 137 138
3 105 104 137
3 106 138 139
3 106 105 138
3 107 139 140
3 107 106 139
3 108 140 141
3 108 107 140
3 109 141 142
3 109 108 141
3 110 142 143
3 110 109 142
3 111 143 144
3 111 110 143
3 112 144 145
3 112 111 144
3 113 145 146
3 113 112 145
3 114 146 147
3 114 113 146
3 115 147 148
3 115 114 147
3 116 148 149
3 116 115 148
3 117 149 150
3 117 116 149
3 118 150 151
3 118 117 150
3 119 151 152
3 119 118 151
3 120 152 153
3 120 119 152
3 121 153 154
3 121 120 153
3 122 154 155
3 122 121 154
3 123 155 156
3 123 122 155
3 124 156 157
3 124 123 156
3 125 157 158
3 125 124 157
3 126 158 159
3 126 125 158
3 127 159 128
3 127 126 159
3 128 160 129
3 128 191 160
3 129 161 130
3 129 160 161
3 130 162 131
3 130 161 162
3 131 163 132
3 131 162 163
3 132 164 133
3 132 163 164
3 133 165 134
3 133 164 165
3 134 166 135
3 134 165 166
3 135 167 136
3 135 166 167
3 136 168 137
3 136 167 168
3 137 169 138
3 137 168 169
3 138 170 139
3 138 169 170
3 139 171 140
3 139 170 171
3 140 172 141
3 140 171 172
3 141 173 142
3 141 172 173
3 142 174 143
3 142 173 174
3 143 175 144
3 143 174 175
3 144 176 145
3 144 175 176
3 145 177 146
3 145 176 177
3 146 178 147
3 146 177 178
3 147 179 148
3 147 178 179
3 148 180 149
3 148 179 180
3 149 181 150
3 149 180 181
3 150 182 151
3 150 181 182
3 151 183 152
3 151 182 183
3 152 184 153
3 152 183 184
3 153 185 154
3 153 184 185
3 154 186 155
3 154 185 186
3 155 187 156
3 155 186 187
3 156 188 157
3 156 187 188
3 157 189 158
3 157 188 189
3 158 190 159
3 158 189 190
3 159 191 128
3 159 190 191
3 160 192 193
3 160 191 192
3 161 193 194
3 161 160 193
3 162 194 195
3 162 161 194
3 163 195 196
3 163 162 195
3 164 196 197
3 164 163 196
3 165 197 198
3 165 164 197
3 166 198 199
3 166 165 198
3 167 199 200
3 167 166 199
3 168 200 201
3 168 167 200
3 169 201 202
3 169 168 201
3 170 202 203
3 170 169 202
3 171 203 204
3 171 170 203
3 172 204 205
3 172 171 204
3 173 205 206
3 173 172 205
3 174 206 207
3 174 173 206
3 175 207 208
3 175 174 207
3 176 208 209
3 176 175 208
3 177 209 210
3 177 176 209
3 178 210 211
3 178 177 210
3 179 211 212
3 179 178 211
3 180 212 213
3 180 179 212
3 181 213 214
3 181 180 213
3 182 214 215
3 182 181 214
3 183 215 216
3 183 182 215
3 184 216 217
3 184 183 216
3 185 217 218
3 185 184 217
3 186 218 219
3 186 185 218
3 187 219 220
3 187 186 219
3 188 220 221
3 188 187 220
3 189 221 222
3 189 188 221
3 190 222 223
3 190 189 222
3 191 223 192
3 191 190 223
3 192 224 193
3 192 255 224
3 193 225 194
3 193 224 225
3 194 226 195
3 194 225 226
3 195 227 196
3 195 226 227
3 196 228 197
3 196 227 228
3 197 229 198
3 197 228 229
3 198 230 199
3 198 229 230
3 199 231 200
3 199 230 231
3 200 232 201
3 200 231 232
3 201 233 202
3 201 232 233
3 202 234 203
3 202 233 234
3 203 235 204
3 203 234 235
3 204 236 205
3 204 235 236
3 205 237 206
3 205 236 237
3 206 238 207
3 206 237 238
3 207 239 208
3 207 238 239
3 208 240 209
3 208 239 240
3 209 241 210
3 209 240 241
3 210 242 211
3 210 241 242
3 211 243 212
3 211 242 243
3 212 244 213
3 212 243 244
3 213 245 214
3 213 244 245
3 214 246 215
3 214 245 246
3 215 247 216
3 215 246 247
3 216 248 217
3 216 247 248
3 217 249 218
3 217 248 249
3 218 250 219
3 218 249 250
3 219 251 220
3 219 250 251
3 220 252 221
3 220 251 252
3 221 253 222
3 221 252 253
3 222 254 223
3 222 253 254
3 223 255 192
3 223 254 255
3 224 256 257
3 224 255 256
3 225 257 258
3 225 224 257
3 226 258 259
3 226 225 258
3 227 259 260
3 227 226 259
3 228 260 261
3 228 227 260
3 229 261 262
3 229 228 261
3 230 262 263
3 230 229 262
3 231 263 264
3 231 230 263
3 232 264 265
3 232 231 264
3 233 265 266
3 233 232 265
3 234 266 267
3 234 233 266
3 235 267 268
3 235 234 267
3 236 268 269
3 236 235 268
3 237 269 270
3 237 236 269
3 238 270 271
3 238 237 270
3 239 271 272
3 239 238 271
3 240 272 273
3 240 239 272
3 241 273 274
3 241 240 273
3 242 274 275
3 242 241 274
3 243 275 276
3 243 242 275
3 244 276 277
3 244 243 276
3 245 277 278
3 245 244 277
3 246 278 279
3 246 245 278
3 247 279 280
3 247 246 279
3 248 280 281
3 248 247 280
3 249 281 282
3 249 248 281
3 250 282 283
3 250 249 282
3 251 283 284
3 251 250 283
3 252 284 285
3 252 251 284
3 253 285 286
3 253 252 285
3 254 286 287
3 254 253 286
3 255 287 256
3 255 254 287

CELL_TYPES 512
5
5
5
5
5
5
5
5
5
5
5
5
5
5
5
5
5
5
5
5
5
5
5
5
5
5
5
5
5
5
5
5
5
5
5
5
5
5
5
5
5
5
5
5
5
5
5
5
5
5
5
5
5
5
5
5
5
5
5
5
5
5
5
5
5
5
5
5
5
5
5
5
5
5
5
5
5
5
5
5
5
5
5
5
5
5
5
5
5
5
5
5
5
5
5
5
5
5
5
5
5
5
5
5
5
5
5
5
5
5
5
5
5
5
5
5
5
5
5
5
5
5
5
5
5
5
5
5
5
5
5
5
5
5
5
5
5
5
5
5
5
5
5
5
5
5
5
5
5
5
5
5
5
5
5
5
5
5
5
5
5
5
5
5
5
5
5
5
5
5
5
5
5
5
5
5
5
5
5
5
5
5
5
5
5
5
5
5
5
5
5
5
5
5
5
5
5
5
5
5
5
5
5
5
5
5
5
5
5
5
5
5
5
5
5
5
5
5
5
5
5
5
5
5
5
5
5
5
5
5
5
5
5
5
5
5
5
5
5
5
5
5
5
5
5
5
5
5
5
5
5
5
5
5
5
5
5
5
5
5
5
5
5
5
5
5
5
5
5
5
5
5
5
5
5
5
5
5
5
5
5
5
5
5
5
5
5
5
5
5
5
5
5
5
5
5
5
5
5
5
5
5
5
5
5
5
5
5
5
5
5
5
5
5
5
5
5
5
5
5
5
5
5
5
5
5
5
5
5
5
5
5
5
5
5
5
5
5
5
5
5
5
5
5
5
5
5
5
5
5
5
5
5
5
5
5
5
5
5
5
5
5
5
5
5
5
5
5
5
5
5
5
5
5
5
5
5
5
5
5
5
5
5
5
5
5
5
5
5
5
5
5
5
5
5
5
5
5
5
5
5
5
5
5
5
5
5
5
5
5
5
5
5
5
5
5
5
5
5
5
5
5
5
5
5
5
5
5
5
5
5
5
5
5
5
5
5
5
5
5
5
5
5
5
5
5
5
5
5
5
5
5
5
5
5
5
5
5
5
5
5
5
5
5
5
5
5
5
5
5
5
5
5
5
5
5
5
5
5
5
5
5
5
5
5
5
5
5
5
5
5
5
5
5
5
5
5
5
5
5
5
5
5
5
5
5
5
5
5
5
5
5

CELL_DATA 512
SCALARS density float
LOOKUP_TABLE default
0.958732
0.964601
0.958683
0.963645
0.973347
0.966482
0.972006
0.975131
0.943247
0.96127
0.896322
0.930819
0.84585
0.891575
0.80926
0.856092
0.80285
0.838503
0.828322
0.848149
0.873296
0.880868
0.925463
0.925072
0.976066
0.971038
1.01896
1.01223
1.04984
1.04433
1.066
1.06455
1.066
1.0716
1.04984
1.06455
1.01896
1.04433
0.976066
1.01223
0.925463
0.971038
0.873296
0.925072
0.828322
0.880868
0.80285
0.848149
0.80926
0.838503
0.84585
0.856092
0.896323
0.891575
0.943247
0.930819
0.972006
0.96127
0.973347
0.975131
0.958683
0.966482
0.958732
0.963644
0.967543
0.962965
0.98042
0.969773
0.991406
0.989743
0.987391
0.997416
0.973897
0.986909
0.954744
0.963636
0.935569
0.935775
0.92296
0.911449
0.922677
0.899201
0.935756
0.90463
0.958001
0.925538
0.98374
0.954659
1.00842
0.985277
1.02902
1.01277
1.04367
1.03418
1.05131
1.04768
1.05131
1.05235
1.04367
1.04768
1.02902
1.03418
1.00842
1.01277
0.98374
0.985277
0.958001
0.954659
0.935756
0.925538
0.922677
0.90463
0.92296
0.899201
0.935569
0.911449
0.954744
0.935775
0.973897
0.963636
0.987391
0.986909
0.991406
0.997416
0.98042
0.989743
0.967543
0.969773
0.986421
0.975835
1.00631
0.997468
1.00525
1.00418
0.99606
0.998757
0.984889
0.99067
0.973261
0.981614
0.962394
0.973132
0.955225
0.96703
0.95481
0.965503
0.962014
0.969749
0.974852
0.978978
0.990064
0.990967
1.00477
1.00332
1.01702
1.01424
1.02567
1.02258
1.03011
1.02773
1.03011
1.02947
1.02567
1.02773
1.01702
1.02258
1.00477
1.01424
0.990064
1.00332
0.974852
0.990967
0.962014
0.978978
0.95481
0.969749
0.955225
0.965503
0.962394
0.96703
0.973261
0.973132
0.984889
0.981614
0.99606
0.99067
1.00525
0.998757
1.00631
1.00418
0.986421
0.997468
0.992216
0.997269
1.0054
1.00876
1.00178
1.00715
0.997743
1.00094
0.993825
0.995746
0.990158
0.990661
0.987306
0.985759
0.986097
0.982158
0.987122
0.981026
0.990348
0.982965
0.995096
0.987628
1.00039
0.993908
1.00536
1.00051
1.00939
1.00639
1.01219
1.01089
1.01361
1.01368
1.01361
1.01463
1.01219
1.01368
1.00939
1.01089
1.00536
1.00639
1.00039
1.00051
0.995096
0.993908
0.990348
0.987628
0.987122
0.982965
0.986097
0.981026
0.987306
0.982158
0.990158
0.985759
0.993825
0.990661
0.997743
0.995746
1.00178
1.00094
1.0054
1.00715
0.992216
1.00876
0.997646
0.984668
1.00435
1.00472
1.00152
1.00076
0.999692
0.999782
0.997384
0.998334
0.995155
0.99679
0.993446
0.995521
0.99263
0.994823
0.992968
0.994934
0.994441
0.995913
0.99673
0.997585
0.999348
0.999612
1.00184
1.00164
1.00389
1.00338
1.00531
1.00469
1.00604
1.00549
1.00604
1.00576
1.00531
1.00549
1.00389
1.00469
1.00184
1.00338
0.999348
1.00164
0.99673
0.999612
0.994441
0.997585
0.992968
0.995913
0.99263
0.994934
0.993446
0.994823
0.995155
0.995521
0.997384
0.99679
0.999692
0.998334
1.00152
0.999782
1.00435
1.00076
0.997646
1.00472
0.997668
0.998311
1.00035
1.0013
1.00025
1.00119
0.999585
1.00035
0.999033
0.999409
0.998542
0.998549
0.998213
0.997822
0.998152
0.997377
0.998409
0.997338
0.998952
0.997738
0.999677
0.998499
1.00045
0.999456
1.00116
1.00043
1.00172
1.00129
1.0021
1.00193
1.0023
1.00233
1.0023
1.00246
1.0021
1.00233
1.00172
1.00193
1.00116
1.00129
1.00045
1.00043
0.999677
0.999456
0.998952
0.998499
0.998409
0.997738
0.998152
0.997338
0.998213
0.997377
0.998542
0.997822
0.999033
0.998549
0.999585
0.999409
1.00025
1.00035
1.00035
1.00119
0.997668
1.0013
0.99854
0.995244
1.00052
1.00053
1.00001
0.999757
0.999837
0.999739
0.999562
0.999646
0.999303
0.999504
0.999121
0.999397
0.999067
0.999366
0.99917
0.999441
0.999415
0.99962
0.999755
0.999877
1.00012
1.00017
1.00047
1.00045
1.00075
1.00069
1.00094
1.00086
1.00103
1.00097
1.00103
1.001
1.00094
1.00097
1.00075
1.00086
1.00047
1.00069
1.00012
1.00045
0.999755
1.00017
0.999415
0.999877
0.99917
0.99962
0.999067
0.999441
0.999121
0.999366
0.999303
0.999397
0.999562
0.999504
0.999837
0.999646
1.00001
0.999739
1.00052
0.999757
0.99854
1.00053
0.998114
0.997837
0.999638
0.999531
0.999817
0.999914
0.999859
0.999898
0.999846
0.999831
0.999816
0.999766
0.9998
0.999709
0.999819
0.999689
0.999904
0.999722
1.00003
0.999815
1.00016
0.999953
1.00028
1.00011
1.00039
1.00026
1.00047
1.00038
1.00052
1.00048
1.00055
1.00053
1.00055
1.00055
1.00052
1.00053
1.00047
1.00048
1.00039
1.00038
1.00028
1.00026
1.00016
1.00011
1.00003
0.999953
0.999904
0.999815
0.999819
0.999722
0.9998
0.999689
0.999816
0.999709
0.999846
0.999766
0.999859
0.999831
0.999817
0.999898
0.999638
0.999914
0.998114
0.999531

SCALARS Mach float
LOOKUP_TABLE default
0.038586
0.0445011
0.0348317
0.0161578
0.0912277
0.102507
0.229107
0.229283
0.38107
0.360776
0.523799
0.483276
0.64382
0.589528
0.725155
0.669959
0.748243
0.709419
0.71158
0.69651
0.634697
0.63899
0.535643
0.554627
0.42507
0.456587
0.308867
0.352542
0.191116
0.247972
0.081163
0.151792
0.0811631
0.100849
0.191116
0.151792
0.308868
0.247972
0.42507
0.352542
0.535643
0.456587
0.634697
0.554628
0.71158
0.63899
0.748243
0.69651
0.725155
0.709419
0.64382
0.66996
0.523799
0.589528
0.38107
0.483276
0.229108
0.360776
0.0912278
0.229283
0.0348316
0.102507
0.038586
0.0161579
0.0238106
0.0623271
0.213219
0.0826028
0.333518
0.236159
0.397002
0.343344
0.441779
0.415913
0.486724
0.478333
0.528526
0.536765
0.555864
0.583614
0.558136
0.605643
0.532833
0.593293
0.486323
0.549577
0.427629
0.485569
0.364527
0.411432
0.30375
0.334725
0.252913
0.262674
0.222375
0.206205
0.222375
0.183628
0.252913
0.206205
0.30375
0.262674
0.364527
0.334726
0.427629
0.411433
0.486323
0.485569
0.532833
0.549577
0.558136
0.593293
0.555864
0.605643
0.528526
0.583614
0.486724
0.536765
0.441779
0.478333
0.397002
0.415913
0.333518
0.343344
0.213219
0.236159
0.0238104
0.0826025
0.113252
0.0947296
0.299358
0.259312
0.369992
0.35841
0.397038
0.384524
0.421241
0.402208
0.448279
0.424051
0.473358
0.445563
0.488996
0.461325
0.488904
0.466308
0.471399
0.457849
0.440077
0.437178
0.401087
0.408495
0.360534
0.376815
0.323772
0.346697
0.295604
0.321961
0.280283
0.305687
0.280283
0.300127
0.295604
0.305687
0.323772
0.321961
0.360534
0.346697
0.401087
0.376815
0.440077
0.408495
0.471399
0.437178
0.488904
0.457849
0.488996
0.466308
0.473358
0.461325
0.44828
0.445564
0.421241
0.424051
0.397038
0.402208
0.369992
0.384524
0.299358
0.35841
0.113252
0.259311
0.259626
0.177631
0.372588
0.319717
0.374146
0.366252
0.383806
0.377929
0.395238
0.391829
0.405508
0.405944
0.413371
0.418332
0.417071
0.426678
0.415207
0.428646
0.407708
0.422989
0.396017
0.41047
0.382407
0.393573
0.36914
0.3754
0.357962
0.358725
0.350006
0.345589
0.345886
0.337258
0.345886
0.33441
0.350006
0.337258
0.357962
0.345589
0.36914
0.358725
0.382407
0.3754
0.396017
0.393573
0.407709
0.41047
0.415207
0.422989
0.417071
0.428646
0.413371
0.426678
0.405508
0.418332
0.395238
0.405944
0.383806
0.391829
0.374146
0.377929
0.372588
0.366252
0.259626
0.319716
0.312352
0.277043
0.373589
0.382559
0.375855
0.372474
0.382047
0.380119
0.38825
0.384423
0.393884
0.388817
0.398064
0.392455
0.399832
0.394608
0.398553
0.394643
0.394306
0.39238
0.387925
0.388218
0.380659
0.382995
0.373717
0.377649
0.367986
0.372944
0.363982
0.369363
0.361944
0.367151
0.361944
0.366408
0.363982
0.367151
0.367986
0.369363
0.373717
0.372944
0.380659
0.377649
0.387925
0.382995
0.394306
0.388218
0.398553
0.39238
0.399832
0.394643
0.398064
0.394608
0.393884
0.392455
0.38825
0.388817
0.382047
0.384423
0.375855
0.380119
0.373589
0.372474
0.312352
0.382559
0.356517
0.331376
0.379995
0.373628
0.379966
0.377885
0.381465
0.380076
0.383115
0.382567
0.384554
0.384784
0.38556
0.386605
0.385854
0.38763
0.385294
0.38756
0.383949
0.386323
0.382086
0.384144
0.380056
0.381461
0.378173
0.37875
0.376652
0.376392
0.375605
0.374616
0.375075
0.373529
0.375075
0.373164
0.375605
0.373529
0.376652
0.374616
0.378173
0.376392
0.380056
0.37875
0.382086
0.381461
0.383949
0.384144
0.385294
0.386323
0.385854
0.38756
0.38556
0.38763
0.384554
0.386605
0.383115
0.384784
0.381465
0.382567
0.379966
0.380076
0.379995
0.377885
0.356517
0.373628
0.36603
0.355138
0.380687
0.383306
0.380668
0.38002
0.381307
0.381357
0.381994
0.381585
0.382644
0.382034
0.383074
0.382378
0.383151
0.382517
0.382807
0.382367
0.382085
0.381921
0.381122
0.381252
0.380091
0.380482
0.379146
0.379735
0.37839
0.3791
0.377872
0.378629
0.377611
0.378343
0.377611
0.378248
0.377872
0.378343
0.37839
0.378629
0.379146
0.3791
0.380091
0.379735
0.381122
0.380482
0.382085
0.381252
0.382807
0.381921
0.383151
0.382367
0.383074
0.382517
0.382644
0.382378
0.381994
0.382034
0.381307
0.381585
0.380668
0.381357
0.380687
0.38002
0.36603
0.383306
0.376426
0.36968
0.382548
0.380652
0.380965
0.381413
0.380989
0.38107
0.380982
0.381216
0.380963
0.381308
0.380912
0.381364
0.380801
0.381335
0.380628
0.381196
0.38042
0.380946
0.380183
0.380605
0.379938
0.380225
0.379716
0.379861
0.379538
0.379552
0.379415
0.379324
0.379353
0.379185
0.379353
0.379139
0.379415
0.379185
0.379538
0.379324
0.379716
0.379552
0.379938
0.379861
0.380183
0.380225
0.38042
0.380605
0.380628
0.380946
0.380801
0.381196
0.380912
0.381335
0.380963
0.381364
0.380982
0.381308
0.380989
0.381216
0.380965
0.38107
0.382548
0.381413
0.376426
0.380652

SCALARS pressure float
LOOKUP_TABLE default
4.96751
4.9987
4.96743
4.9889
4.98723
4.96446
4.90935
4.9133
4.67321
4.76729
4.33036
4.52595
3.98037
4.24496
3.73138
4.00208
3.67896
3.88228
3.83229
3.94058
4.11759
4.15097
4.45918
4.44205
4.79947
4.75151
5.09435
5.03435
5.31011
5.25824
5.42368
5.40091
5.42368
5.44976
5.31011
5.40091
5.09434
5.25824
4.79947
5.03435
4.45918
4.75151
4.11759
4.44205
3.83229
4.15097
3.67896
3.94058
3.73138
3.88228
3.98037
4.00208
4.33036
4.24496
4.67321
4.52595
4.90935
4.76729
4.98723
4.9133
4.96743
4.96446
4.96751
4.9889
4.98912
4.98433
4.96552
4.98778
4.9303
4.99769
4.86815
4.965
4.76759
4.85874
4.63703
4.69195
4.50813
4.50329
4.42369
4.34176
4.42147
4.26176
4.50869
4.29901
4.65853
4.43968
4.83386
4.63729
5.00385
4.8476
5.14701
5.03874
5.24956
5.18909
5.30322
5.28468
5.30322
5.31747
5.24956
5.28468
5.14701
5.18909
5.00385
5.03874
4.83386
4.8476
4.65853
4.63729
4.50869
4.43968
4.42147
4.29901
4.42368
4.26176
4.50813
4.34176
4.63703
4.50329
4.76759
4.69195
4.86815
4.85874
4.9303
4.965
4.96552
4.99769
4.98912
4.98778
5.05595
5.0003
5.03308
5.01047
4.98128
4.97781
4.91598
4.93657
4.84248
4.88364
4.76391
4.82214
4.68983
4.76354
4.64106
4.72114
4.63842
4.71005
4.68773
4.73841
4.77575
4.80104
4.88056
4.88305
4.9825
4.96815
5.06784
5.04374
5.12827
5.10179
5.15935
5.13783
5.15935
5.14992
5.12827
5.13783
5.06784
5.10179
4.9825
5.04374
4.88056
4.96815
4.77575
4.88305
4.68773
4.80104
4.63842
4.73841
4.64106
4.71005
4.68983
4.72114
4.76391
4.76354
4.84248
4.82214
4.91598
4.88364
4.98128
4.93657
5.03308
4.97781
5.05595
5.01047
4.9892
5.0636
4.97501
5.03348
4.96026
4.99358
4.93234
4.95395
4.90449
4.91774
4.87883
4.88179
4.85903
4.8478
4.85055
4.82322
4.8574
4.81577
4.87942
4.82947
4.912
4.86191
4.94848
4.90551
4.9828
4.95135
5.0108
4.99223
5.03022
5.02359
5.0401
5.04306
5.0401
5.04965
5.03022
5.04306
5.0108
5.02359
4.9828
4.99223
4.94848
4.95135
4.912
4.90551
4.87942
4.86191
4.8574
4.82947
4.85055
4.81577
4.85903
4.82322
4.87883
4.8478
4.90449
4.88179
4.93234
4.91774
4.96026
4.95395
4.97501
4.99358
4.9892
5.03348
4.98785
4.94514
4.97421
4.96443
4.95767
4.95649
4.94417
4.94521
4.92826
4.93525
4.91303
4.92456
4.90135
4.91572
4.89582
4.91078
4.89827
4.91143
4.90856
4.91808
4.92447
4.92955
4.94266
4.94352
4.95997
4.95751
4.97419
4.96959
4.98407
4.97865
4.98909
4.98419
4.98909
4.98604
4.98407
4.98419
4.97419
4.97865
4.95997
4.96959
4.94266
4.95751
4.92447
4.94352
4.90856
4.92955
4.89827
4.91808
4.89582
4.91143
4.90135
4.91078
4.91303
4.91572
4.92826
4.92456
4.94417
4.93525
4.95767
4.94521
4.97421
4.95649
4.98785
4.96443
4.9521
4.97538
4.9488
4.95852
4.94796
4.95435
4.94388
4.94896
4.93996
4.94245
4.93651
4.9365
4.9342
4.93149
4.93374
4.92846
4.93548
4.92825
4.9392
4.93108
4.9442
4.93639
4.94954
4.94305
4.95442
4.94983
4.95832
4.95576
4.96099
4.96023
4.96233
4.96298
4.96233
4.9639
4.96099
4.96298
4.95832
4.96023
4.95442
4.95576
4.94954
4.94983
4.9442
4.94305
4.9392
4.93639
4.93548
4.93108
4.93374
4.92825
4.9342
4.92846
4.93651
4.93149
4.93996
4.9365
4.94388
4.94245
4.94796
4.94896
4.9488
4.95435
4.9521
4.95852
4.95067
4.94191
4.94913
4.947
4.94677
4.9456
4.94539
4.94483
4.94351
4.94416
4.94174
4.94317
4.94051
4.94242
4.94016
4.94218
4.94089
4.94268
4.94261
4.9439
4.94497
4.94567
4.94754
4.94769
4.94993
4.94963
4.95185
4.95128
4.95317
4.95249
4.95384
4.95322
4.95384
4.95346
4.95317
4.95322
4.95185
4.95249
4.94993
4.95128
4.94754
4.94963
4.94497
4.94769
4.94261
4.94567
4.94089
4.9439
4.94016
4.94268
4.94051
4.94218
4.94174
4.94242
4.94351
4.94317
4.94539
4.94416
4.94677
4.94483
4.94913
4.9456
4.95067
4.947
4.94036
4.94461
4.9435
4.94409
4.9454
4.94584
4.94564
4.94586
4.94551
4.94542
4.94527
4.94496
4.94515
4.94457
4.94529
4.94443
4.94588
4.94467
4.94675
4.94533
4.94765
4.94629
4.94851
4.94737
4.94924
4.94841
4.94979
4.94927
4.95016
4.94991
4.95033
4.95029
4.95033
4.95042
4.95016
4.95029
4.94979
4.94991
4.94924
4.94927
4.94851
4.94841
4.94765
4.94737
4.94675
4.94629
4.94588
4.94533
4.94529
4.94467
4.94515
4.94443
4.94527
4.94457
4.94551
4.94496
4.94564
4.94542
4.9454
4.94586
4.9435
4.94584
4.94036
4.94409

SCALARS entropy float
LOOKUP_TABLE default
5.26942
5.25739
5.26971
5.25438
5.17946
5.20716
5.10843
5.08962
5.07154
5.03835
5.04748
5.00378
5.03168
4.98486
5.01818
4.97459
5.00307
4.96799
4.98861
4.96248
4.97756
4.95763
4.96995
4.95379
4.96503
4.95109
4.9621
4.94937
4.96055
4.94842
4.95946
4.94803
4.95946
4.9469
4.96055
4.94803
4.9621
4.94842
4.96503
4.94937
4.96995
4.95109
4.97756
4.95379
4.98861
4.95763
5.00307
4.96248
5.01818
4.96799
5.03168
4.97459
5.04748
4.98486
5.07154
5.00378
5.10843
5.03835
5.17946
5.08962
5.26971
5.20716
5.26942
5.25438
5.22499
5.25475
5.10491
5.20678
4.99024
5.07035
4.9554
4.98302
4.94744
4.94921
4.94764
4.94169
4.94869
4.94185
4.94912
4.94356
4.94877
4.94526
4.94792
4.94662
4.94694
4.94766
4.94608
4.94853
4.94542
4.94932
4.94495
4.95002
4.94462
4.9506
4.94444
4.95104
4.94444
4.95084
4.94462
4.95104
4.94495
4.9506
4.94542
4.95002
4.94608
4.94932
4.94694
4.94853
4.94792
4.94766
4.94877
4.94662
4.94912
4.94526
4.94869
4.94356
4.94764
4.94185
4.94744
4.94169
4.9554
4.94921
4.99024
4.98302
5.10491
5.07035
5.22499
5.20678
5.15366
5.17451
4.98898
5.02828
4.94488
4.94882
4.94322
4.94517
4.94682
4.94815
4.94814
4.94906
4.94837
4.94868
4.94845
4.94801
4.94864
4.94733
4.9489
4.94663
4.94911
4.94599
4.94927
4.94548
4.94939
4.94512
4.94947
4.9449
4.94952
4.94479
4.94949
4.94478
4.94949
4.9447
4.94952
4.94478
4.94947
4.94479
4.94939
4.9449
4.94927
4.94512
4.94911
4.94548
4.9489
4.94599
4.94864
4.94663
4.94845
4.94733
4.94837
4.94801
4.94815
4.94868
4.94682
4.94906
4.94322
4.94815
4.94488
4.94517
4.98898
4.94882
5.15366
5.02828
5.04409
5.08302
4.93764
4.97242
4.94793
4.94403
4.94797
4.94745
4.94721
4.94718
4.94686
4.94634
4.94671
4.94613
4.94656
4.94632
4.94635
4.94667
4.94612
4.94705
4.94592
4.94739
4.94576
4.94765
4.94567
4.94783
4.94562
4.94794
4.9456
4.948
4.94559
4.94803
4.94559
4.94804
4.9456
4.94803
4.94562
4.948
4.94567
4.94794
4.94576
4.94783
4.94592
4.94765
4.94612
4.94739
4.94635
4.94705
4.94656
4.94667
4.94671
4.94632
4.94686
4.94613
4.94721
4.94634
4.94797
4.94718
4.94793
4.94745
4.93764
4.94403
5.04409
4.97242
5.00434
5.05327
4.94405
4.9318
4.94713
4.95124
4.9463
4.94672
4.94637
4.94679
4.94655
4.94678
4.94668
4.94671
4.94679
4.94659
4.9469
4.94647
4.94701
4.94636
4.94711
4.94627
4.94717
4.94621
4.94721
4.94617
4.94723
4.94615
4.94724
4.94615
4.94724
4.94614
4.94724
4.94614
4.94724
4.94614
4.94723
4.94615
4.94721
4.94615
4.94717
4.94617
4.94711
4.94621
4.94701
4.94627
4.9469
4.94636
4.94679
4.94647
4.94668
4.94659
4.94655
4.94671
4.94637