# vtk DataFile Version 2.0
2D Unstructured Grid of Linear Triangles
ASCII

DATASET UNSTRUCTURED_GRID
POINTS 1088 float
0.5 0 0.00
0.497592 0.0490086 0.00
0.490393 0.0975452 0.00
0.47847 0.145142 0.00
0.46194 0.191342 0.00
0.440961 0.235698 0.00
0.415735 0.277785 0.00
0.386505 0.317197 0.00
0.353553 0.353553 0.00
0.317197 0.386505 0.00
0.277785 0.415735 0.00
0.235698 0.440961 0.00
0.191342 0.46194 0.00
0.145142 0.47847 0.00
0.0975451 0.490393 0.00
0.0490085 0.497592 0.00
-2.18557e-08 0.5 0.00
-0.0490086 0.497592 0.00
-0.0975452 0.490393 0.00
-0.145142 0.47847 0.00
-0.191342 0.46194 0.00
-0.235698 0.440961 0.00
-0.277785 0.415735 0.00
-0.317197 0.386505 0.00
-0.353553 0.353553 0.00
-0.386505 0.317197 0.00
-0.415735 0.277785 0.00
-0.440961 0.235698 0.00
-0.46194 0.191342 0.00
-0.47847 0.145142 0.00
-0.490393 0.0975451 0.00
-0.497592 0.0490085 0.00
-0.5 -4.37114e-08 0.00
-0.497592 -0.0490086 0.00
-0.490393 -0.0975452 0.00
-0.47847 -0.145142 0.00
-0.46194 -0.191342 0.00
-0.440961 -0.235698 0.00
-0.415735 -0.277785 0.00
-0.386505 -0.317197 0.00
-0.353553 -0.353553 0.00
-0.317197 -0.386505 0.00
-0.277785 -0.415735 0.00
-0.235698 -0.440961 0.00
-0.191342 -0.46194 0.00
-0.145142 -0.47847 0.00
-0.0975451 -0.490393 0.00
-0.0490085 -0.497592 0.00
6.55671e-08 -0.5 0.00
0.0490086 -0.497592 0.00
0.0975452 -0.490393 0.00
0.145142 -0.47847 0.00
0.191342 -0.46194 0.00
0.235698 -0.440961 0.00
0.277785 -0.415735 0.00
0.317197 -0.386505 0.00
0.353553 -0.353553 0.00
0.386505 -0.317197 0.00
0.415735 -0.277785 0.00
0.440961 -0.235698 0.00
0.46194 -0.191342 0.00
0.47847 -0.145142 0.00
0.490393 -0.0975451 0.00
0.497592 -0.0490085 0.00
0.560661 0.0275435 0.00
0.555261 0.0823652 0.00
0.544514 0.136394 0.00
0.528523 0.189109 0.00
0.507442 0.240002 0.00
0.481475 0.288585 0.00
0.45087 0.334388 0.00
0.415923 0.376971 0.00
0.376971 0.415923 0.00
0.334388 0.45087 0.00
0.288585 0.481475 0.00
0.240002 0.507442 0.00
0.189109 0.528523 0.00
0.136394 0.544514 0.00
0.0823652 0.555261 0.00
0.0275435 0.560661 0.00
-0.0275435 0.560661 0.00
-0.0823652 0.555261 0.00
-0.136394 0.544514 0.00
-0.189109 0.528523 0.00
-0.240002 0.507442 0.00
-0.288585 0.481475 0.00
-0.334388 0.45087 0.00
-0.376971 0.415923 0.00
-0.415923 0.376971 0.00
-0.45087 0.334388 0.00
-0.481475 0.288585 0.00
-0.507443 0.240002 0.00
-0.528523 0.189109 0.00
-0.544514 0.136394 0.00
-0.555261 0.0823652 0.00
-0.560661 0.0275434 0.00
-0.560661 -0.0275435 0.00
-0.555261 -0.0823653 0.00
-0.544514 -0.136394 0.00
-0.528523 -0.189109 0.00
-0.507442 -0.240002 0.00
-0.481475 -0.288585 0.00
-0.45087 -0.334388 0.00
-0.415923 -0.376971 0.00
-0.376971 -0.415923 0.00
-0.334388 -0.45087 0.00
-0.288585 -0.481475 0.00
-0.240002 -0.507443 0.00
-0.189109 -0.528523 0.00
-0.136394 -0.544514 0.00
-0.0823651 -0.555261 0.00
-0.0275434 -0.560661 0.00
0.0275436 -0.560661 0.00
0.0823653 -0.555261 0.00
0.136394 -0.544514 0.00
0.189109 -0.528523 0.00
0.240002 -0.507442 0.00
0.288585 -0.481475 0.00
0.334388 -0.45087 0.00
0.376971 -0.415923 0.00
0.415923 -0.376971 0.00
0.45087 -0.334388 0.00
0.481475 -0.288585 0.00
0.507443 -0.240002 0.00
0.528523 -0.189109 0.00
0.544514 -0.136394 0.00
0.555261 -0.0823651 0.00
0.560661 -0.0275434 0.00
0.643593 0 0.00
0.640494 0.0630831 0.00
0.631226 0.125559 0.00
0.61588 0.186825 0.00
0.594602 0.246292 0.00
0.567598 0.303387 0.00
0.535128 0.357561 0.00
0.497504 0.408291 0.00
0.455089 0.455089 0.00
0.408291 0.497504 0.00
0.357561 0.535128 0.00
0.303387 0.567598 0.00
0.246292 0.594602 0.00
0.186825 0.61588 0.00
0.125559 0.631226 0.00
0.0630831 0.640494 0.00
-2.81323e-08 0.643593 0.00
-0.0630831 0.640494 0.00
-0.125559 0.631226 0.00
-0.186825 0.61588 0.00
-0.246292 0.594602 0.00
-0.303387 0.567598 0.00
-0.357561 0.535128 0.00
-0.408291 0.497504 0.00
-0.455089 0.455089 0.00
-0.497504 0.408291 0.00
-0.535128 0.357561 0.00
-0.567598 0.303387 0.00
-0.594602 0.246292 0.00
-0.61588 0.186825 0.00
-0.631226 0.125559 0.00
-0.640494 0.0630831 0.00
-0.643593 -5.62647e-08 0.00
-0.640494 -0.0630832 0.00
-0.631226 -0.125559 0.00
-0.61588 -0.186825 0.00
-0.594602 -0.246292 0.00
-0.567598 -0.303388 0.00
-0.535128 -0.357561 0.00
-0.497504 -0.408291 0.00
-0.455089 -0.455089 0.00
-0.408291 -0.497504 0.00
-0.357561 -0.535128 0.00
-0.303387 -0.567598 0.00
-0.246292 -0.594602 0.00
-0.186825 -0.61588 0.00
-0.125559 -0.631226 0.00
-0.063083 -0.640494 0.00
8.4397e-08 -0.643593 0.00
0.0630832 -0.640494 0.00
0.125559 -0.631226 0.00
0.186825 -0.61588 0.00
0.246292 -0.594602 0.00
0.303388 -0.567598 0.00
0.357561 -0.535128 0.00
0.408291 -0.497504 0.00
0.455089 -0.455089 0.00
0.497504 -0.408291 0.00
0.535128 -0.357561 0.00
0.567598 -0.303387 0.00
0.594602 -0.246292 0.00
0.61588 -0.186825 0.00
0.631226 -0.125559 0.00
0.640494 -0.063083 0.00
0.752994 0.0369922 0.00
0.745742 0.11062 0.00
0.731308 0.183183 0.00
0.709832 0.253982 0.00
0.681519 0.322335 0.00
0.646643 0.387583 0.00
0.60554 0.449099 0.00
0.558604 0.506289 0.00
0.506289 0.558604 0.00
0.449099 0.60554 0.00
0.387583 0.646643 0.00
0.322334 0.681519 0.00
0.253982 0.709832 0.00
0.183183 0.731308 0.00
0.11062 0.745742 0.00
0.0369922 0.752994 0.00
-0.0369922 0.752994 0.00
-0.11062 0.745742 0.00
-0.183183 0.731308 0.00
-0.253982 0.709832 0.00
-0.322335 0.681519 0.00
-0.387583 0.646643 0.00
-0.449099 0.605539 0.00
-0.506289 0.558604 0.00
-0.558604 0.506289 0.00
-0.60554 0.449099 0.00
-0.646643 0.387583 0.00
-0.681519 0.322334 0.00
-0.709832 0.253982 0.00
-0.731308 0.183183 0.00
-0.745742 0.11062 0.00
-0.752994 0.0369921 0.00
-0.752994 -0.0369923 0.00
-0.745742 -0.11062 0.00
-0.731308 -0.183183 0.00
-0.709832 -0.253982 0.00
-0.681519 -0.322335 0.00
-0.646643 -0.387583 0.00
-0.605539 -0.449099 0.00
-0.558604 -0.50629 0.00
-0.506289 -0.558604 0.00
-0.449099 -0.60554 0.00
-0.387583 -0.646643 0.00
-0.322334 -0.681519 0.00
-0.253982 -0.709832 0.00
-0.183183 -0.731308 0.00
-0.11062 -0.745742 0.00
-0.0369921 -0.752994 0.00
0.0369923 -0.752994 0.00
0.11062 -0.745742 0.00
0.183183 -0.731308 0.00
0.253982 -0.709832 0.00
0.322335 -0.681519 0.00
0.387583 -0.646643 0.00
0.449099 -0.605539 0.00
0.50629 -0.558604 0.00
0.558604 -0.506289 0.00
0.60554 -0.449099 0.00
0.646643 -0.387583 0.00
0.681519 -0.322334 0.00
0.709832 -0.253982 0.00
0.731308 -0.183183 0.00
0.745742 -0.11062 0.00
0.752994 -0.0369921 0.00
0.901832 0 0.00
0.897489 0.088395 0.00
0.884503 0.175939 0.00
0.862999 0.261788 0.00
0.833184 0.345116 0.00
0.795345 0.425121 0.00
0.749846 0.501031 0.00
0.697125 0.572116 0.00
0.637691 0.637691 0.00
0.572116 0.697125 0.00
0.501031 0.749846 0.00
0.425121 0.795345 0.00
0.345116 0.833184 0.00
0.261788 0.862999 0.00
0.175939 0.884503 0.00
0.0883949 0.897489 0.00
-3.94203e-08 0.901832 0.00
-0.088395 0.897489 0.00
-0.175939 0.884503 0.00
-0.261788 0.862999 0.00
-0.345116 0.833184 0.00
-0.425121 0.795345 0.00
-0.501031 0.749846 0.00
-0.572116 0.697125 0.00
-0.637691 0.637691 0.00
-0.697125 0.572116 0.00
-0.749846 0.501031 0.00
-0.795345 0.42512 0.00
-0.833184 0.345116 0.00
-0.862999 0.261788 0.00
-0.884503 0.175939 0.00
-0.897489 0.0883949 0.00
-0.901832 -7.88406e-08 0.00
-0.897489 -0.088395 0.00
-0.884503 -0.175939 0.00
-0.862999 -0.261788 0.00
-0.833184 -0.345116 0.00
-0.795345 -0.425121 0.00
-0.749846 -0.501031 0.00
-0.697125 -0.572116 0.00
-0.637691 -0.637691 0.00
-0.572116 -0.697125 0.00
-0.501031 -0.749846 0.00
-0.42512 -0.795345 0.00
-0.345116 -0.833184 0.00
-0.261788 -0.862999 0.00
-0.175939 -0.884503 0.00
-0.0883949 -0.897489 0.00
1.18261e-07 -0.901832 0.00
0.0883951 -0.897489 0.00
0.175939 -0.884503 0.00
0.261788 -0.862999 0.00
0.345116 -0.833184 0.00
0.425121 -0.795345 0.00
0.501031 -0.749846 0.00
0.572116 -0.697125 0.00
0.637691 -0.637691 0.00
0.697125 -0.572116 0.00
0.749846 -0.501031 0.00
0.795345 -0.42512 0.00
0.833184 -0.345116 0.00
0.862999 -0.261788 0.00
0.884503 -0.175938 0.00
0.897489 -0.0883948 0.00
1.09889 0.0539849 0.00
1.08831 0.161435 0.00
1.06724 0.26733 0.00
1.0359 0.370651 0.00
0.994581 0.470402 0.00
0.943684 0.565623 0.00
0.8837 0.655396 0.00
0.815204 0.738858 0.00
0.738858 0.815204 0.00
0.655396 0.8837 0.00
0.565623 0.943684 0.00
0.470402 0.994581 0.00
0.370651 1.0359 0.00
0.26733 1.06724 0.00
0.161435 1.08831 0.00
0.0539849 1.09889 0.00
-0.053985 1.09889 0.00
-0.161435 1.08831 0.00
-0.26733 1.06724 0.00
-0.370651 1.0359 0.00
-0.470402 0.994581 0.00
-0.565623 0.943684 0.00
-0.655396 0.8837 0.00
-0.738858 0.815204 0.00
-0.815204 0.738858 0.00
-0.8837 0.655396 0.00
-0.943685 0.565623 0.00
-0.994581 0.470402 0.00
-1.0359 0.370651 0.00
-1.06724 0.26733 0.00
-1.08831 0.161435 0.00
-1.09889 0.0539848 0.00
-1.09889 -0.053985 0.00
-1.08831 -0.161435 0.00
-1.06724 -0.26733 0.00
-1.0359 -0.370651 0.00
-0.994581 -0.470402 0.00
-0.943684 -0.565623 0.00
-0.8837 -0.655396 0.00
-0.815204 -0.738858 0.00
-0.738858 -0.815204 0.00
-0.655396 -0.8837 0.00
-0.565623 -0.943685 0.00
-0.470402 -0.994581 0.00
-0.370651 -1.0359 0.00
-0.26733 -1.06724 0.00
-0.161435 -1.08831 0.00
-0.0539848 -1.09889 0.00
0.0539851 -1.09889 0.00
0.161435 -1.08831 0.00
0.26733 -1.06724 0.00
0.370651 -1.0359 0.00
0.470402 -0.994581 0.00
0.565623 -0.943684 0.00
0.655396 -0.8837 0.00
0.738858 -0.815204 0.00
0.815204 -0.738858 0.00
0.8837 -0.655396 0.00
0.943685 -0.565623 0.00
0.994581 -0.470402 0.00
1.0359 -0.370651 0.00
1.06724 -0.26733 0.00
1.08831 -0.161435 0.00
1.09889 -0.0539847 0.00
1.36625 0 0.00
1.35967 0.133916 0.00
1.34 0.266543 0.00
1.30742 0.396602 0.00
1.26225 0.522842 0.00
1.20493 0.644047 0.00
1.136 0.75905 0.00
1.05613 0.866742 0.00
0.966087 0.966087 0.00
0.866742 1.05613 0.00
0.759049 1.136 0.00
0.644047 1.20493 0.00
0.522842 1.26225 0.00
0.396602 1.30742 0.00
0.266543 1.34 0.00
0.133916 1.35967 0.00
-5.97208e-08 1.36625 0.00
-0.133916 1.35967 0.00
-0.266543 1.34 0.00
-0.396602 1.30742 0.00
-0.522842 1.26225 0.00
-0.644047 1.20493 0.00
-0.75905 1.136 0.00
-0.866742 1.05613 0.00
-0.966087 0.966087 0.00
-1.05613 0.866742 0.00
-1.136 0.759049 0.00
-1.20493 0.644047 0.00
-1.26225 0.522842 0.00
-1.30742 0.396602 0.00
-1.34 0.266543 0.00
-1.35967 0.133916 0.00
-1.36625 -1.19442e-07 0.00
[...]
CELL_DATA 2048
SCALARS density float
LOOKUP_TABLE default
0.993182
0.994805
0.990112
0.992142
0.990582
0.990491
0.993405
0.99308
1.00016
0.998179
1.00325
1.00387
0.994293
1.00035
0.97393
0.987068
0.945962
0.965573
0.914189
0.938891
0.881252
0.909673
0.848972
0.879893
0.81891
0.851162
0.792743
0.825084
0.772592
0.803464
0.760904
0.788376
0.759542
0.781725
0.768365
0.78456
0.785504
0.79632
0.80863
0.815184
0.835698
0.838942
0.86504
0.865693
0.895293
0.893905
0.925351
0.922374
0.954276
0.950128
0.981276
0.97636
1.00567
1.0004
1.02689
1.02168
1.04443
1.03972
1.05792
1.05414
1.06708
1.06465
1.0717
1.07103
1.0717
1.07318
1.06708
1.07103
1.05792
1.06465
1.04443
1.05414
1.02689
1.03972
1.00567
1.02168
0.981277
1.0004
0.954276
0.97636
0.925352
0.950128
0.895293
0.922374
0.86504
0.893905
0.835699
0.865694
0.80863
0.838942
0.785504
0.815184
0.768365
0.79632
0.759543
0.78456
0.760904
0.781725
0.772592
0.788376
0.792744
0.803464
0.81891
0.825084
0.848972
0.851162
0.881252
0.879893
0.914189
0.909673
0.945962
0.938891
0.97393
0.965573
0.994293
0.987068
1.00325
1.00035
1.00016
1.00387
0.993405
0.998179
0.990582
0.993079
0.990112
0.990491
0.993182
0.992142
0.987973
0.989581
0.984034
0.984672
0.987885
0.984729
0.996894
0.991137
1.00667
1.00351
1.00799
1.01231
1.00123
1.01062
0.987818
0.999064
0.969802
0.980523
0.948899
0.957732
0.926546
0.932738
0.90406
0.907124
0.88277
0.882282
0.864129
0.859646
0.849758
0.840823
0.841293
0.827616
0.839907
0.821686
0.845733
0.823889
0.857803
0.833703
0.874574
0.849563
0.894473
0.869628
0.916146
0.892275
0.938491
0.916188
0.960626
0.940321
0.981835
0.963833
1.00154
0.986035
1.01925
1.00636
1.03459
1.02432
1.04724
1.03954
1.05694
1.05171
1.06352
1.06057
1.06684
1.06595
1.06684
1.06777
1.06352
1.06595
1.05694
1.06057
1.04724
1.05171
1.03459
1.03954
1.01925
1.02432
1.00154
1.00636
0.981835
0.986035
0.960626
0.963833
0.938492
0.940321
0.916146
0.916188
0.894473
0.892275
0.874574
0.869629
0.857803
0.849564
0.845733
0.833703
0.839907
0.823889
0.841293
0.821686
0.849758
0.827616
0.864129
0.840824
0.88277
0.859646
0.904061
0.882282
0.926547
0.907124
0.948899
0.932738
0.969802
0.957732
0.987818
0.980523
1.00123
0.999064
1.00799
1.01062
1.00667
1.01231
0.996894
1.00351
0.987884
0.991137
0.984034
0.984729
0.987973
0.984672
0.985527
0.989312
0.981593
0.98598
0.993188
0.990267
1.00883
1.00207
1.01479
1.00995
1.01171
1.00971
1.00319
1.00425
0.991181
0.995251
0.976501
0.98364
0.959837
0.96998
0.942006
0.954896
0.923972
0.939162
0.906832
0.923704
0.891823
0.909583
0.880282
0.897977
0.873492
0.890079
0.872348
0.886865
0.876986
0.888786
0.886731
0.895587
0.900411
0.906443
0.916756
0.920269
0.934629
0.935987
0.953087
0.952655
0.971368
0.969493
0.988864
0.98587
1.00509
1.00128
1.01964
1.01533
1.03221
1.02769
1.04255
1.03812
1.05047
1.04642
1.05582
1.05244
1.05852
1.05609
1.05852
1.05731
1.05582
1.05609
1.05047
1.05244
1.04255
1.04642
1.03221
1.03812
1.01964
1.02769
1.00509
1.01533
0.988864
1.00128
0.971368
0.98587
0.953087
0.969493
0.934629
0.952656
0.916756
0.935987
0.900411
0.920269
0.886731
0.906443
0.876987
0.895587
0.872348
0.888786
0.873492
0.886865
0.880282
0.890079
0.891823
0.897977
0.906832
0.909583
0.923972
0.923704
0.942006
0.939163
0.959837
0.954896
0.976501
0.96998
0.991181
0.98364
1.00319
0.995251
1.01171
1.00425
1.01479
1.00971
1.00883
1.00995
0.993188
1.00207
0.981593
0.990267
0.985527
0.98598
0.997135
0.995462
1.00397
0.994616
1.01334
1.00581
1.01488
1.01572
1.01126
1.01503
1.00585
1.00998
0.999415
1.00372
0.991905
0.996397
0.983207
0.98757
0.973456
0.977192
0.963024
0.965601
0.952467
0.953397
0.942483
0.941341
0.933865
0.930314
0.927432
0.921257
0.923903
0.915086
0.923735
0.912528
0.926997
0.913927
0.933364
0.919135
0.942227
0.92758
0.952863
0.938459
0.964558
0.950926
0.976678
0.964213
0.988694
0.977671
1.00018
0.990771
1.0108
1.00309
1.02029
1.01431
1.02845
1.02416
1.03513
1.03246
1.04023
1.03905
1.04366
1.04382
1.04539
1.04672
1.04539
1.04769
1.04366
1.04672
1.04023
1.04382
1.03513
1.03905
1.02845
1.03246
1.02029
1.02416
1.0108
1.01431
1.00018
1.00309
0.988694
0.990771
0.976678
0.977671
0.964558
0.964213
0.952863
0.950926
0.942227
0.938459
0.933364
0.92758
0.926998
0.919135
0.923735
0.913927
0.923903
0.912529
0.927433
0.915086
0.933865
0.921257
0.942483
0.930314
0.952467
0.941342
0.963024
0.953397
0.973456
0.965602
0.983207
0.977192
0.991905
0.98757
0.999416
0.996397
1.00585
1.00372
1.01126
1.00998
1.01488
1.01503
1.01334
1.01572
1.00397
1.00581
0.997134
0.994616
1.00989
1.00451
1.0198
1.01555
1.0219
1.02202
1.0165
1.01893
1.011
1.01356
1.00616
1.00848
1.00099
1.00342
0.994947
0.997951
0.988007
0.991912
0.980346
0.985331
0.972263
0.978375
0.96416
0.971323
0.956545
0.964555
0.949998
0.958533
0.945115
0.95376
0.942416
0.950708
0.942234
0.949732
0.944637
0.95099
0.949415
0.954407
0.956144
0.959699
0.964291
0.966449
0.973309
0.974183
0.982695
0.982443
0.992024
0.99082
1.00095
0.998974
1.0092
1.00663
1.01656
1.01358
1.02289
1.01966
1.02806
1.02476
1.032
1.0288
1.03465
1.03171
1.03598
1.03348
1.03598
1.03407
1.03465
1.03348
1.032
1.03171
1.02806
1.0288
1.02289
1.02476
1.01656
1.01966
1.0092
1.01358
1.00095
1.00663
0.992024
0.998974
0.982695
0.99082
0.973309
0.982443
0.964291
0.974183
0.956144
0.966449
0.949415
0.959699
0.944638
0.954407
0.942234
0.95099
0.942416
0.949732
0.945116
0.950708
0.949998
0.953761
0.956545
0.958533
0.96416
0.964555
0.972263
0.971323
0.980346
0.978375
0.988007
0.985331
0.994947
0.991912
1.00099
0.997952
1.00616
1.00342
1.011
1.00848
1.0165
1.01356
1.0219
1.01893
1.0198
1.02202
1.00989
1.01555
1.00922
1.01395
1.02115
1.02125
1.01811
1.0232
1.01361
1.01723
1.00992
1.01274
1.00605
1.00879
1.00193
1.00454
0.997567
0.999926
0.992995
0.994989
0.988282
0.989778
0.983553
0.984386
0.978999
0.97899
0.974873
0.973854
0.971465
0.969309
0.969065
0.96571
0.967913
0.963394
0.968157
0.962609
0.969813
0.963475
0.972772
0.965946
0.976815
0.969832
0.981662
0.974837
0.987011
0.980615
0.992576
0.986821
0.998104
0.993138
1.00339
0.999301
1.00826
1.00509
1.01259
1.01035
1.0163
1.01495
1.01932
1.01881
1.02162
1.02185
1.02316
1.02405
1.02394
1.02538
1.02394
1.02582
1.02316
1.02538
1.02162
1.02405
1.01932
1.02185
1.0163
1.01881
1.01259
1.01495
1.00826
1.01035
1.00339
1.00509
0.998104
0.999301
0.992576
0.993138
0.987011
0.986821
0.981662
0.980615
0.976815
0.974837
0.972772
0.969832
0.969813
0.965946
0.968157
0.963475
0.967913
0.962609
0.969065
0.963394
0.971465
0.96571
0.974873
0.969309
0.978999
0.973854
0.983553
0.97899
0.988283
0.984386
0.992995
0.989778
0.997567
0.994989
1.00193
0.999926
1.00605
1.00454
1.00992
1.00879
1.01361
1.01274
1.01811
1.01723
1.02115
1.0232
1.00922
1.02125
1.01077
0.999606
1.01907
1.0164
1.01458
1.01387
1.01216
1.01144
1.00927
1.0092
1.00611
1.00654
1.00277
1.00371
0.999297
1.00071
0.9957
0.997591
0.992028
0.994399
0.988384
0.991213
0.98491
0.988144
0.981786
0.985334
0.979214
0.982947
0.977393
0.981151
0.976489
0.980098
0.976603
0.979893
0.977749
0.980578
0.979854
0.982119
0.982768
0.984414
0.986289
0.987307
0.990201
0.990615
0.994288
0.994152
0.998361
0.997744
1.00226
1.00124
1.00586
1.00452
1.00906
1.00748
1.01181
1.01007
1.01404
1.01223
1.01574
1.01394
1.01688
1.01516
1.01745
1.0159
1.01745
1.01615
1.01688
1.0159
1.01574
1.01516
1.01404
1.01394
1.01181
1.01223
1.00906
1.01007
1.00586
1.00748
1.00226
1.00452
0.998361
1.00124
0.994288
0.997743
0.990201
0.994152
0.98629
0.990615
0.982768
0.987307
0.979855
0.984414
0.977749
0.982119
0.976603
0.980578
0.976489
0.979893
0.977394
0.980098
0.979214
0.981152
0.981786
0.982947
0.98491
0.985334
0.988384
0.988144
0.992028
0.991213
0.9957
0.994399
0.999297
0.997591
1.00277
1.00071
1.00611
1.00371
1.00927
1.00654
1.01216
1.0092
1.01458
1.01144
1.01907
1.01387
1.01077
1.0164
1.00449
1.00685
1.01049
1.0118
1.00822
1.01122
1.00708
1.00961
1.00552
1.00783
1.00379
1.00584
1.0019
1.00367
0.999895
1.00137
0.997819
0.998974
0.995731
0.996524
0.993703
0.994091
0.991818
0.99176
0.990174
0.989633
0.988871
0.987827
0.988003
0.986459
0.987643
0.985634
0.98783
0.985424
0.988561
0.985859
0.989792
0.986916
0.991441
0.988524
0.993404
0.990573
0.995565
0.992935
0.997813
0.995473
1.00004
0.998061
1.00217
1.00059
1.00413
1.00296
1.00587
1.00511
1.00736
1.00699
1.00856
1.00855
1.00948
1.00979
1.01009
1.01068
1.01039
1.01122
1.01039
1.01139
1.01009
1.01122
1.00948
1.01068
1.00856
1.00979
1.00736
1.00855
1.00587
1.00699
1.00413
1.00511
1.00217
1.00296
1.00004
1.00059
0.997813
0.998061
0.995565
0.995473
0.993404
0.992935
0.991441
0.990573
0.989792
0.988524
0.988561
0.986916
0.98783
0.985859
0.987643
0.985424
0.988003
0.985634
0.988871
0.986459
0.990174
0.987827
0.991818
0.989633
0.993703
0.99176
0.995731
0.994091
0.997819
0.996524
0.999895
0.998974
1.0019
1.00137
1.00379
1.00367
1.00552
1.00584
1.00708
1.00783
1.00822
1.00961
1.01049
1.01122
1.00449
1.0118
1.00369
0.997465
1.00773
1.00725
1.00642
1.00491
1.00574
1.00496
1.00458
1.00402
1.00332
1.00305
1.00192
1.00196
1.00043
1.00075
0.998876
0.999478
0.997312
0.998172
0.99579
0.996878
0.994374
0.995651
0.993135
0.994551
0.992146
0.993639
0.991472
0.992975
0.991163
0.992608
0.991248
0.992569
0.991724
0.992867
0.99256
0.993484
0.993701
0.994381
0.995073
0.995501
0.996593
0.996777
0.998182
0.998137
0.999764
0.999516
1.00128
1.00086
1.00267
1.00211
1.00391
1.00325
1.00497
1.00423
1.00584
1.00505
1.00649
1.0057
1.00693
1.00616
1.00715
1.00644
1.00715
1.00654
1.00693
1.00644
1.00649
1.00616
1.00584
1.0057
1.00497
1.00505
1.00391
1.00423
1.00267
1.00325
1.00128
1.00211
0.999764
1.00086
0.998182
0.999516
0.996593
0.998137
0.995073
0.996777
0.993701
0.995502
0.99256
0.994381
0.991724
0.993484
0.991248
0.992867
0.991163
0.992569
0.991472
0.992608
0.992146
0.992975
0.993135
0.993639
0.994374
0.994551
0.99579
0.995651
0.997312
0.996878
0.998876
0.998172
1.00043
0.999478
1.00192
1.00075
1.00332
1.00196
1.00458
1.00305
1.00574
1.00402
1.00642
1.00496
1.00773
1.00491
1.00369
1.00725
1.00081
1.0013
1.00363
1.00388
1.00321
1.00439
1.00263
1.00377
1.00217
1.00319
1.00156
1.00251
1.00088
1.00172
1.00014
1.00084
0.999356
0.999914
0.998567
0.998956
0.9978
0.998004
0.997091
0.997097
0.99648
0.996278
0.996004
0.995594
0.995695
0.995085
0.995577
0.994788
0.995661
0.994724
0.995945
0.9949
0.996409
0.995305
0.997025
0.995911
0.997753
0.996678
0.998553
0.997559
0.999382
0.998505
1.0002
0.999469
1.00099
1.00041
1.00171
1.00129
1.00235
1.00209
1.00289
1.00278
1.00333
1.00336
1.00366
1.00382
1.00388
1.00415
1.004
1.00434
1.004
1.00441
1.00388
1.00434
1.00366
1.00415
1.00333
1.00382
1.00289
1.00336
1.00235
1.00278
1.00171
1.00209
1.00099
1.00129
1.0002
1.00041
0.999382
0.999469
0.998553
0.998505
0.997753
0.997559
0.997025
0.996678
0.996409
0.995911
0.995945
0.995305
0.995661
0.9949
0.995577
0.994724
0.995695
0.994788
0.996004
0.995085
0.99648
0.995594
0.997091
0.996278
0.9978
0.997097
0.998567
0.998004
0.999356
0.998956
1.00014
0.999914
1.00088
1.00084
1.00156
1.00172
1.00217
1.00251
1.00263
1.00319
1.00321
1.00377
1.00363
1.00439
1.00081
1.00388
1.00051
0.997691
1.00285
1.0024
1.00222
1.00173
1.00209
1.00166
1.0017
1.00142
1.00128
1.00109
1.00079
1.00072
1.00026
1.00031
0.999702
0.99986
0.999132
0.999398
0.998574
0.998938
0.998056
0.9985
0.997604
0.998108
0.997246
0.997786
0.997006
0.997554
0.996899
0.99743
0.996936
0.997424
0.997113
0.997538
0.997418
0.997765
0.997832
0.99809
0.998328
0.998494
0.998877
0.998952
0.999449
0.99944
1.00002
0.999933
1.00056
1.00041
1.00106
1.00086
1.00151
1.00126
1.00189
1.00161
1.0022
1.0019
1.00243
1.00213
1.00259
1.0023
1.00266
1.0024
1.00266
1.00243
1.00259
1.0024
1.00243
1.0023
1.0022
1.00213
1.00189
1.0019
1.00151
1.00161
1.00106
1.00126
1.00056
1.00086
1.00002
1.00041
0.999449
0.999933
0.998877
0.99944
0.998328
0.998952
0.997832
0.998494
0.997418
0.99809
0.997113
0.997765
0.996936
0.997538
0.996899
0.997424
0.997006
0.99743
0.997246
0.997554
0.997604
0.997786
0.998056
0.998108
0.998574
0.9985
0.999132
0.998938
0.999702
0.999398
1.00026
0.99986
1.00079
1.00031
1.00128
1.00072
1.0017
1.00109
1.00209
1.00142
1.00222
1.00166
1.00285
1.00173
1.00051
1.0024
0.999507
0.999378
1.00128
1.00113
1.00097
1.00142
1.00085
1.00126
1.00069
1.00106
1.0005
1.00085
1.00028
1.00059
1.00003
1.0003
0.999772
0.999987
0.999506
0.999659
0.999246
0.99933
0.999006
0.999016
0.998799
0.998731
0.998639
0.998494
0.998538
0.998319
0.998503
0.998219
0.998538
0.998201
0.998642
0.998267
0.998809
0.998413
0.999027
0.998629
0.999284
0.998901
0.999566
0.999212
0.999856
0.999545
1.00014
0.999884
1.00042
1.00021
1.00067
1.00052
1.00089
1.0008
1.00108
1.00105
1.00123
1.00125
1.00135
1.00141
1.00143
1.00152
1.00147
1.00159
1.00147
1.00161
1.00143
1.00159
1.00135
1.00152
1.00123
1.00141
1.00108
1.00125
1.00089
1.00105
1.00067
1.0008
1.00042
1.00052
1.00014
1.00021
0.999856
0.999884
0.999566
0.999545
0.999284
0.999212
0.999027
0.998901
0.998809
0.998629
0.998642
0.998413
0.998538
0.998267
0.998503
0.998201
0.998538
0.998219
0.998639
0.998319
0.998799
0.998494
0.999006
0.998731
0.999246
0.999016
0.999506
0.99933
0.999772
0.999659
1.00003
0.999987
1.00028
1.0003
1.0005
1.00059
1.00069
1.00085
1.00085
1.00106
1.00097
1.00126
1.00128
1.00142
0.999507
1.00113
0.999602
0.998092
1.00091
1.00086
1.00066
1.00042
1.00064
1.0005
1.00052
1.0004
1.00039
1.0003
1.00023
1.00019
1.00006
1.00006
0.999881
0.99992
0.999694
0.999772
0.99951
0.999624
0.999339
0.999482
0.99919
0.999356
0.999073
0.999253
0.998996
0.99918
0.998965
0.999144
0.998982
0.999148
0.999048
0.999193
0.999157
0.999276
0.999303
0.999393
0.999477
0.999536
0.999669
0.999696
0.999868
0.999866
1.00007
1.00004
1.00025
1.0002
1.00043
1.00036
1.00058
1.0005
1.00071
1.00062
1.00082
1.00072
1.0009
1.0008
1.00095
1.00086
1.00098
1.00089
1.00098
1.0009
1.00095
1.00089
1.0009
1.00086
1.00082
1.0008
1.00071
1.00072
1.00058
1.00062
1.00043
1.0005
1.00025
1.00036
1.00007
1.0002
0.999868
1.00004
0.999669
0.999866
0.999477
0.999696
0.999303
0.999536
0.999157
0.999393
0.999048
0.999276
0.998982
0.999193
0.998965
0.999148
0.998996
0.999144
0.999073
0.99918
0.99919
0.999253
0.999339
0.999356
0.99951
0.999482
0.999694
0.999624
0.999881
0.999772
1.00006
0.99992
1.00023
1.00006
1.00039
1.00019
1.00052
1.0003
1.00064
1.0004
1.00066
1.0005
1.00091
1.00042
0.999602
1.00086
0.999364
0.999181
1.00037
1.00019
1.00025
1.00041
1.00019
1.00033
1.00016
1.00028
1.0001
1.00022
1.00004
1.00014
0.999966
1.00006
0.999887
0.999959
0.999806
0.999856
0.999726
0.999753
0.999652
0.999654
0.999589
0.999564
0.999541
0.999491
0.999514
0.999438
0.999509
0.999411
0.999527
0.999411
0.999569
0.999439
0.999633
0.999495
0.999713
0.999574
0.999806
0.999671
0.999906
0.999782
1.00001
0.999899
1.00011
1.00002
1.00021
1.00013
1.0003
1.00024
1.00037
1.00034
1.00044
1.00042
1.00049
1.00049
1.00053
1.00055
1.00056
1.00059
1.00057
1.00061
1.00057
1.00062
1.00056
1.00061
1.00053
1.00059
1.00049
1.00055
1.00044
1.00049
1.00037
1.00042
1.0003
1.00034
1.00021
1.00024
1.00011
1.00013
1.00001
1.00002
0.999906
0.999899
0.999806
0.999782
0.999713
0.999671
0.999633
0.999574
0.999569
0.999495
0.999527
0.999439
0.999509
0.999411
0.999514
0.999411
0.999541
0.999438
0.999589
0.999491
0.999652
0.999564
0.999726
0.999654
0.999806
0.999753
0.999887
0.999856
0.999966
0.999959
1.00004
1.00006
1.0001
1.00014
1.00016
1.00022
1.00019
1.00028
1.00025
1.00033
1.00037
1.00041
0.999364
1.00019
0.999494
0.998714
1.0002
1.00019
1.00009
0.999978
1.00013
1.00006
1.0001
1.00005
1.00007
1.00004
1.00003
1.00001
0.999979
0.999979
0.999925
0.999938
0.999868
0.999893
0.999811
0.999846
0.999759
0.999802
0.999714
0.999763
0.99968
0.999733
0.999661
0.999714
0.999658
0.999709
0.999672
0.99972
0.999702
0.999744
0.999747
0.999781
0.999804
0.99983
0.99987
0.999887
0.999942
0.99995
1.00002
1.00002
1.00009
1.00008
1.00016
1.00014
1.00022
1.0002
1.00027
1.00025
1.00032
1.0003
1.00036
1.00033
1.00039
1.00036
1.00041
1.00038
1.00042
1.00039
1.00042
1.0004
1.00041
1.00039
1.00039
1.00038
1.00036
1.00036
1.00032
1.00033
1.00027
1.0003
1.00022
1.00025
1.00016
1.0002
1.00009
1.00014
1.00002
1.00008
0.999942
1.00002
0.99987
0.99995
0.999804
0.999887
0.999747
0.99983
0.999702
0.999781
0.999672
0.999744
0.999658
0.99972
0.999661
0.999709
0.99968
0.999714
0.999714
0.999733
0.999759
0.999763
0.999811
0.999802
0.999868
0.999846
0.999925
0.999893
0.999979
0.999938
1.00003
0.999979
1.00007
1.00001
1.0001
1.00004
1.00013
1.00005
1.00009
1.00006
1.0002
0.999978
0.999494
1.00019
0.999167
0.998989
0.999958
0.999773
0.999966
1.00005
1.00002
1.00004
1.00003
1.00005
1.00002
1.00004
0.999999
1.00002
0.999974
0.999996
0.999944
0.999966
0.999911
0.999932
0.99988
0.999896
0.999851
0.999861
0.999827
0.99983
0.999811
0.999805
0.999804
0.999789
0.999808
0.999783
0.99983
0.99979
0.999865
0.99981
0.999904
0.999842
0.999947
0.999882
0.999992
0.999928
1.00004
0.999978
1.00008
1.00003
1.00013
1.00008
1.00017
1.00013
1.0002
1.00017
1.00023
1.00021
1.00026
1.00024
1.00028
1.00027
1.00029
1.00029
1.0003
1.0003
1.00031
1.00031
1.00031
1.00032
1.0003
1.00031
1.00029
1.0003
1.00028
1.00029
1.00026
1.00027
1.00023
1.00024
1.0002
1.00021
1.00017
1.00017
1.00013
1.00013
1.00008
1.00008
1.00004
1.00003
0.999992
0.999978
0.999947
0.999928
0.999904
0.999882
0.999865
0.999842
0.99983
0.99981
0.999808
0.99979
0.999804
0.999783
0.999811
0.999789
0.999827
0.999805
0.999851
0.99983
0.99988
0.999861
0.999911
0.999896
0.999944
0.999932
0.999974
0.999966
0.999999
0.999996
1.00002
1.00002
1.00003
1.00004
1.00002
1.00005
0.999966
1.00004
0.999958
1.00005
0.999167
0.999773

SCALARS Mach float
LOOKUP_TABLE default
0.0454122
0.0546956
0.078026
0.0655559
0.0716423
0.0650855
0.0411747
0.0408173
0.038711
0.0562212
0.124528
0.139412
0.228061
0.233772
0.329812
0.325041
0.423626
0.409958
0.508576
0.488113
0.585288
0.559803
0.654304
0.625247
0.715403
0.684127
0.767327
0.735316
0.807508
0.776756
0.83235
0.805526
0.838858
0.818734
0.827122
0.814791
0.800117
0.794774
0.761629
0.761779
0.7149
0.719372
0.662372
0.670399
0.605808
0.616933
0.54643
0.560393
0.485104
0.501753
0.422428
0.441706
0.358829
0.380741
0.294633
0.319254
0.230101
0.257611
0.165527
0.196283
0.101512
0.136252
0.041718
0.0809964
0.041718
0.0505518
0.101512
0.0809964
0.165527
0.136252
0.230101
0.196283
0.294633
0.257611
0.358829
0.319254
0.422428
0.380741
0.485104
0.441706
0.54643
0.501753
0.605808
0.560392
0.662371
0.616933
0.7149
0.670398
0.761629
0.719371
0.800117
0.761778
0.827121
0.794774
0.838858
0.81479
0.832349
0.818733
0.807508
0.805526
0.767326
0.776756
0.715402
0.735315
0.654304
0.684127
0.585287
0.625247
0.508576
0.559803
0.423625
0.488113
0.329812
0.409958
0.22806
0.325041
0.124528
0.233771
0.0387112
0.139412
0.0411751
0.0562214
0.0716423
0.0408173
0.0780248
0.0650851
0.0454106
0.0655547
0.0946133
0.103419
0.0161317
0.0603541
0.0811097
0.0369388
0.164454
0.077943
0.256194
0.163917
0.319194
0.251703
0.366098
0.320375
0.410512
0.3792
0.456715
0.435402
0.504283
0.49071
0.551539
0.544522
0.596661
0.595671
0.637782
0.642796
0.672828
0.684238
0.69939
0.717869
0.71493
0.74106
0.717565
0.751206
0.707067
0.746889
0.684985
0.728907
0.653746
0.699732
0.615741
0.662209
0.572912
0.618724
0.526729
0.571069
0.478284
0.52054
0.428407
0.468077
0.377777
0.41439
0.327029
0.360063
0.276888
0.305654
0.228401
0.251847
0.183421
0.199745
0.145685
0.151646
0.122446
0.113229
0.122446
0.0970835
0.145685
0.113229
0.183421
0.151646
0.228401
0.199745
0.276888
0.251847
0.327029
0.305654
0.377777
0.360063
0.428407
0.41439
0.478284
0.468076
0.526729
0.52054
0.572911
0.571069
0.615741
0.618724
0.653746
0.662209
0.684984
0.699731
0.707067
0.728906
0.717564
0.746888
0.71493
0.751205
0.69939
0.74106
0.672828
0.717869
0.637782
0.684238
0.596661
0.642796
0.551539
0.595671
0.504283
0.544522
0.456715
0.490709
0.410512
0.435401
0.366098
0.3792
0.319194
0.320375
0.256194
0.251703
0.164454
0.163917
0.081109
0.0779426
0.0161321
0.0369379
0.0946143
0.0603553
0.0972872
0.11078
0.0455076
0.0225554
0.160418
0.143245
0.260457
0.249922
0.323307
0.32233
0.355427
0.352793
0.380115
0.371237
0.40837
0.392912
0.442034
0.420668
0.479454
0.453062
0.518235
0.487765
0.556089
0.522557
0.590894
0.555441
0.620542
0.584511
0.64286
0.607832
0.655792