# vtk DataFile Version 2.0
2D Unstructured Grid of Linear Triangles
ASCII

DATASET UNSTRUCTURED_GRID
POINTS 4224 float
0.5 0 0.00
0.499398 0.0245338 0.00
0.497592 0.0490086 0.00
0.494588 0.0733652 0.00
0.490393 0.0975452 0.00
0.485016 0.12149 0.00
0.47847 0.145142 0.00
0.470772 0.168445 0.00
0.46194 0.191342 0.00
0.451995 0.213778 0.00
0.440961 0.235698 0.00
0.428864 0.257051 0.00
0.415735 0.277785 0.00
0.401604 0.29785 0.00
0.386505 0.317197 0.00
0.370476 0.335779 0.00
0.353553 0.353553 0.00
0.335779 0.370476 0.00
0.317197 0.386505 0.00
0.29785 0.401604 0.00
0.277785 0.415735 0.00
0.257051 0.428864 0.00
0.235698 0.440961 0.00
0.213778 0.451995 0.00
0.191342 0.46194 0.00
0.168445 0.470772 0.00
0.145142 0.47847 0.00
0.12149 0.485016 0.00
0.0975451 0.490393 0.00
0.0733652 0.494588 0.00
0.0490085 0.497592 0.00
0.0245338 0.499398 0.00
-2.18557e-08 0.5 0.00
-0.0245339 0.499398 0.00
-0.0490086 0.497592 0.00
-0.0733653 0.494588 0.00
-0.0975452 0.490393 0.00
-0.12149 0.485016 0.00
-0.145142 0.47847 0.00
-0.168445 0.470772 0.00
-0.191342 0.46194 0.00
-0.213778 0.451995 0.00
-0.235698 0.440961 0.00
-0.257051 0.428864 0.00
-0.277785 0.415735 0.00
-0.29785 0.401604 0.00
-0.317197 0.386505 0.00
-0.33578 0.370476 0.00
-0.353553 0.353553 0.00
-0.370476 0.335779 0.00
-0.386505 0.317197 0.00
-0.401604 0.29785 0.00
-0.415735 0.277785 0.00
-0.428864 0.257051 0.00
-0.440961 0.235698 0.00
-0.451995 0.213778 0.00
-0.46194 0.191342 0.00
-0.470772 0.168445 0.00
-0.47847 0.145142 0.00
-0.485016 0.12149 0.00
-0.490393 0.0975451 0.00
-0.494588 0.0733652 0.00
-0.497592 0.0490085 0.00
-0.499398 0.0245338 0.00
-0.5 -4.37114e-08 0.00
-0.499398 -0.0245339 0.00
-0.497592 -0.0490086 0.00
-0.494588 -0.0733653 0.00
-0.490393 -0.0975452 0.00
-0.485016 -0.12149 0.00
-0.47847 -0.145142 0.00
-0.470772 -0.168445 0.00
-0.46194 -0.191342 0.00
-0.451995 -0.213778 0.00
-0.440961 -0.235698 0.00
-0.428864 -0.257051 0.00
-0.415735 -0.277785 0.00
-0.401604 -0.29785 0.00
-0.386505 -0.317197 0.00
-0.370476 -0.33578 0.00
-0.353553 -0.353553 0.00
-0.335779 -0.370476 0.00
-0.317197 -0.386505 0.00
-0.29785 -0.401604 0.00
-0.277785 -0.415735 0.00
-0.257051 -0.428864 0.00
-0.235698 -0.440961 0.00
-0.213777 -0.451995 0.00
-0.191342 -0.46194 0.00
-0.168445 -0.470772 0.00
-0.145142 -0.47847 0.00
-0.12149 -0.485016 0.00
-0.0975451 -0.490393 0.00
-0.0733652 -0.494588 0.00
-0.0490085 -0.497592 0.00
-0.0245338 -0.499398 0.00
6.55671e-08 -0.5 0.00
0.0245339 -0.499398 0.00
0.0490086 -0.497592 0.00
0.0733653 -0.494588 0.00
0.0975452 -0.490393 0.00
0.12149 -0.485016 0.00
0.145142 -0.47847 0.00
0.168445 -0.470772 0.00
0.191342 -0.46194 0.00
0.213778 -0.451995 0.00
0.235698 -0.440961 0.00
0.257051 -0.428864 0.00
0.277785 -0.415735 0.00
0.29785 -0.401604 0.00
0.317197 -0.386505 0.00
0.33578 -0.370476 0.00
0.353553 -0.353553 0.00
0.370476 -0.335779 0.00
0.386505 -0.317197 0.00
0.401604 -0.29785 0.00
0.415735 -0.277785 0.00
0.428864 -0.257051 0.00
0.440961 -0.235698 0.00
0.451995 -0.213777 0.00
0.46194 -0.191342 0.00
0.470772 -0.168445 0.00
0.47847 -0.145142 0.00
0.485016 -0.12149 0.00
0.490393 -0.0975451 0.00
0.494588 -0.0733652 0.00
0.497592 -0.0490085 0.00
0.499398 -0.0245338 0.00
0.528263 0.0129681 0.00
0.526991 0.0388732 0.00
0.524449 0.0646846 0.00
0.520643 0.0903401 0.00
0.515583 0.115778 0.00
0.509281 0.140937 0.00
0.501752 0.165756 0.00
0.493014 0.190177 0.00
0.483089 0.214139 0.00
0.472 0.237585 0.00
0.459774 0.260459 0.00
0.44644 0.282705 0.00
0.43203 0.30427 0.00
0.41658 0.325102 0.00
0.400126 0.345151 0.00
0.382708 0.364369 0.00
0.364369 0.382708 0.00
0.345151 0.400126 0.00
0.325102 0.41658 0.00
0.30427 0.43203 0.00
0.282705 0.44644 0.00
0.260458 0.459774 0.00
0.237585 0.472 0.00
0.214139 0.483089 0.00
0.190177 0.493014 0.00
0.165756 0.501752 0.00
0.140937 0.509281 0.00
0.115778 0.515583 0.00
0.0903401 0.520643 0.00
0.0646845 0.524449 0.00
0.0388731 0.526991 0.00
0.0129681 0.528263 0.00
-0.0129682 0.528263 0.00
-0.0388732 0.526991 0.00
-0.0646846 0.524449 0.00
-0.0903401 0.520643 0.00
-0.115778 0.515583 0.00
-0.140937 0.509281 0.00
-0.165757 0.501752 0.00
-0.190177 0.493014 0.00
-0.214139 0.483089 0.00
-0.237585 0.472 0.00
-0.260459 0.459774 0.00
-0.282705 0.44644 0.00
-0.30427 0.43203 0.00
-0.325102 0.41658 0.00
-0.345151 0.400126 0.00
-0.364369 0.382708 0.00
-0.382708 0.364369 0.00
-0.400126 0.345151 0.00
-0.41658 0.325102 0.00
-0.43203 0.30427 0.00
-0.44644 0.282705 0.00
-0.459774 0.260458 0.00
-0.472 0.237585 0.00
-0.483089 0.214139 0.00
-0.493014 0.190177 0.00
-0.501752 0.165756 0.00
-0.509281 0.140937 0.00
-0.515583 0.115778 0.00
-0.520643 0.0903401 0.00
-0.524449 0.0646845 0.00
-0.526991 0.0388731 0.00
-0.528263 0.0129681 0.00
-0.528263 -0.0129682 0.00
-0.526991 -0.0388732 0.00
-0.524449 -0.0646846 0.00
-0.520643 -0.0903402 0.00
-0.515583 -0.115778 0.00
-0.509281 -0.140937 0.00
-0.501752 -0.165757 0.00
-0.493014 -0.190177 0.00
-0.483089 -0.214139 0.00
-0.472 -0.237585 0.00
-0.459774 -0.260459 0.00
-0.44644 -0.282705 0.00
-0.43203 -0.30427 0.00
-0.41658 -0.325102 0.00
-0.400126 -0.345151 0.00
-0.382708 -0.364369 0.00
-0.364369 -0.382709 0.00
-0.345151 -0.400126 0.00
-0.325102 -0.41658 0.00
-0.30427 -0.43203 0.00
-0.282705 -0.44644 0.00
-0.260458 -0.459774 0.00
-0.237585 -0.472 0.00
-0.214139 -0.483089 0.00
-0.190177 -0.493014 0.00
-0.165756 -0.501752 0.00
-0.140937 -0.509281 0.00
-0.115778 -0.515583 0.00
-0.09034 -0.520643 0.00
-0.0646845 -0.524449 0.00
-0.0388731 -0.526991 0.00
-0.0129681 -0.528263 0.00
0.0129682 -0.528263 0.00
0.0388732 -0.526991 0.00
0.0646846 -0.524449 0.00
0.0903402 -0.520643 0.00
0.115778 -0.515583 0.00
0.140937 -0.509281 0.00
0.165757 -0.501752 0.00
0.190177 -0.493014 0.00
0.214139 -0.483089 0.00
0.237585 -0.472 0.00
0.260459 -0.459774 0.00
0.282705 -0.44644 0.00
0.30427 -0.43203 0.00
0.325102 -0.41658 0.00
0.345151 -0.400126 0.00
0.364369 -0.382708 0.00
0.382709 -0.364369 0.00
0.400126 -0.345151 0.00
0.41658 -0.325102 0.00
0.43203 -0.30427 0.00
0.44644 -0.282705 0.00
0.459774 -0.260458 0.00
0.472 -0.237585 0.00
0.483089 -0.214139 0.00
0.493014 -0.190177 0.00
0.501752 -0.165756 0.00
0.509281 -0.140937 0.00
0.515583 -0.115778 0.00
0.520643 -0.09034 0.00
0.524449 -0.0646845 0.00
0.526991 -0.0388731 0.00
0.528263 -0.012968 0.00
0.561337 0 0.00
0.560661 0.0275435 0.00
0.558634 0.0550206 0.00
0.555261 0.0823652 0.00
0.550551 0.109511 0.00
0.544514 0.136394 0.00
0.537166 0.162947 0.00
0.528523 0.189109 0.00
0.518608 0.214814 0.00
0.507442 0.240002 0.00
0.495055 0.264612 0.00
0.481475 0.288585 0.00
0.466735 0.311862 0.00
0.45087 0.334388 0.00
0.433919 0.356108 0.00
0.415923 0.376971 0.00
0.396925 0.396925 0.00
0.376971 0.415923 0.00
0.356108 0.433919 0.00
0.334388 0.45087 0.00
0.311862 0.466735 0.00
0.288585 0.481475 0.00
0.264612 0.495055 0.00
0.240002 0.507442 0.00
0.214814 0.518608 0.00
0.189109 0.528523 0.00
0.162947 0.537166 0.00
0.136394 0.544514 0.00
0.109511 0.550551 0.00
0.0823652 0.555261 0.00
0.0550206 0.558634 0.00
0.0275435 0.560661 0.00
-2.45368e-08 0.561337 0.00
-0.0275435 0.560661 0.00
-0.0550207 0.558634 0.00
-0.0823652 0.555261 0.00
-0.109511 0.550551 0.00
-0.136394 0.544514 0.00
-0.162948 0.537166 0.00
-0.189109 0.528523 0.00
-0.214814 0.518608 0.00
-0.240002 0.507442 0.00
-0.264612 0.495055 0.00
-0.288585 0.481475 0.00
-0.311862 0.466734 0.00
-0.334388 0.45087 0.00
-0.356108 0.433919 0.00
-0.376971 0.415923 0.00
-0.396925 0.396925 0.00
-0.415923 0.376971 0.00
-0.433919 0.356108 0.00
-0.45087 0.334388 0.00
-0.466735 0.311862 0.00
-0.481475 0.288585 0.00
-0.495055 0.264612 0.00
-0.507443 0.240002 0.00
-0.518608 0.214814 0.00
-0.528523 0.189109 0.00
-0.537166 0.162947 0.00
-0.544514 0.136394 0.00
-0.550551 0.109511 0.00
-0.555261 0.0823652 0.00
-0.558634 0.0550206 0.00
-0.560661 0.0275434 0.00
-0.561337 -4.90736e-08 0.00
-0.560661 -0.0275435 0.00
-0.558634 -0.0550207 0.00
-0.555261 -0.0823653 0.00
-0.550551 -0.109511 0.00
-0.544514 -0.136394 0.00
-0.537166 -0.162948 0.00
-0.528523 -0.189109 0.00
-0.518608 -0.214814 0.00
-0.507442 -0.240002 0.00
-0.495055 -0.264612 0.00
-0.481475 -0.288585 0.00
-0.466734 -0.311862 0.00
-0.45087 -0.334388 0.00
-0.433919 -0.356108 0.00
-0.415923 -0.376971 0.00
-0.396925 -0.396925 0.00
-0.376971 -0.415923 0.00
-0.356108 -0.433919 0.00
-0.334388 -0.45087 0.00
-0.311862 -0.466735 0.00
-0.288585 -0.481475 0.00
-0.264612 -0.495055 0.00
-0.240002 -0.507443 0.00
-0.214814 -0.518608 0.00
-0.189109 -0.528523 0.00
-0.162947 -0.537166 0.00
-0.136394 -0.544514 0.00
-0.109511 -0.550551 0.00
-0.0823651 -0.555261 0.00
-0.0550206 -0.558634 0.00
-0.0275434 -0.560661 0.00
7.36104e-08 -0.561337 0.00
0.0275436 -0.560661 0.00
0.0550207 -0.558634 0.00
0.0823653 -0.555261 0.00
0.109511 -0.550551 0.00
0.136394 -0.544514 0.00
0.162948 -0.537166 0.00
0.189109 -0.528523 0.00
0.214814 -0.518608 0.00
0.240002 -0.507442 0.00
0.264612 -0.495055 0.00
0.288585 -0.481475 0.00
0.311862 -0.466734 0.00
0.334388 -0.45087 0.00
0.356108 -0.433919 0.00
0.376971 -0.415923 0.00
0.396925 -0.396925 0.00
0.415923 -0.376971 0.00
0.433919 -0.356108 0.00
0.45087 -0.334388 0.00
0.466735 -0.311862 0.00
0.481475 -0.288585 0.00
0.495055 -0.264612 0.00
0.507443 -0.240002 0.00
0.518608 -0.214814 0.00
0.528523 -0.189109 0.00
0.537166 -0.162947 0.00
0.544514 -0.136394 0.00
0.550551 -0.109511 0.00
0.555261 -0.0823651 0.00
0.558634 -0.0550205 0.00
0.560661 -0.0275434 0.00
0.599272 0.0147113 0.00
0.597829 0.0440985 0.00
0.594945 0.0733794 0.00
0.590627 0.102484 0.00
0.584887 0.131341 0.00
0.577738 0.159882 0.00
0.569197 0.188037 0.00
0.559285 0.21574 0.00
0.548026 0.242923 0.00
0.535446 0.269521 0.00
0.521576 0.295469 0.00
0.50645 0.320706 0.00
0.490104 0.34517 0.00
0.472576 0.368802 0.00
0.453911 0.391546 0.00
0.434152 0.413347 0.00
0.413347 0.434152 0.00
0.391546 0.453911 0.00
0.368802 0.472577 0.00
0.34517 0.490104 0.00
0.320706 0.50645 0.00
0.295469 0.521576 0.00
0.269521 0.535446 0.00
0.242923 0.548026 0.00
0.21574 0.559285 0.00
0.188037 0.569197 0.00
0.159882 0.577738 0.00
0.131341 0.584887 0.00
0.102484 0.590627 0.00
0.0733794 0.594945 0.00
[...]
CELL_DATA 8192
SCALARS density float
LOOKUP_TABLE default
0.978134
0.978254
0.977994
0.978191
0.977685
0.977987
0.977154
0.977603
0.976334
0.976978
0.975147
0.976039
0.973517
0.974713
0.971375
0.972928
0.968658
0.970621
0.96531
0.967736
0.961283
0.964222
0.956535
0.960038
0.951044
0.955154
0.944796
0.949554
0.937791
0.943233
0.930053
0.936202
0.92161
0.928491
0.912533
0.920147
0.902887
0.911239
0.892777
0.901851
0.882315
0.892086
0.871617
0.882061
0.86085
0.871913
0.850182
0.8618
0.83979
0.851887
0.829872
0.842357
0.820622
0.833397
0.812285
0.825212
0.805086
0.818017
0.79922
0.812009
0.794878
0.807373
0.792279
0.804287
0.791498
0.802884
0.792656
0.803251
0.795703
0.805414
0.800588
0.809331
0.807223
0.814931
0.815447
0.822091
0.825034
0.830639
0.83581
0.840394
0.847573
0.851177
0.860135
0.862807
0.873304
0.875106
0.886877
0.887894
0.900728
0.901018
0.914711
0.914339
0.928657
0.927717
0.942494
0.94103
0.956046
0.95416
0.96925
0.966998
0.981992
0.979452
0.994194
0.99143
1.00577
1.00285
1.01663
1.01363
1.02672
1.0237
1.03599
1.03301
1.04436
1.04149
1.05179
1.0491
1.05824
1.05578
1.06368
1.06149
1.06806
1.06622
1.07137
1.06992
1.07359
1.07258
1.0747
1.07418
1.0747
1.07472
1.07359
1.07418
1.07137
1.07258
1.06806
1.06992
1.06368
1.06622
1.05824
1.06149
1.05179
1.05578
1.04436
1.0491
1.03599
1.04149
1.02672
1.03301
1.01663
1.0237
1.00577
1.01363
0.994194
1.00285
0.981992
0.99143
0.969253
0.979453
0.956038
0.966997
0.942492
0.954158
0.928665
0.941032
0.914709
0.927718
0.900728
0.914339
0.886877
0.901017
0.873303
0.887894
0.860132
0.875104
0.847581
0.862809
0.835808
0.851179
0.825033
0.840393
0.815447
0.830638
0.807223
0.822091
0.800588
0.814931
0.795703
0.809332
0.792656
0.805414
0.791498
0.803251
0.792279
0.802884
0.794878
0.804287
0.79922
0.807373
0.805086
0.812009
0.812285
0.818017
0.820622
0.825212
0.829872
0.833397
0.83979
0.842357
0.850182
0.851888
0.86085
0.8618
0.871617
0.871913
0.882315
0.882062
0.892777
0.892087
0.902887
0.901851
0.912535
0.91124
0.921606
0.920147
0.930054
0.92849
0.937791
0.936202
0.944796
0.943233
0.951044
0.949554
0.956535
0.955154
0.961283
0.960038
0.965309
0.964222
0.968659
0.967735
0.971375
0.970622
0.973517
0.972928
0.975147
0.974713
0.976334
0.976039
0.977154
0.976978
0.977685
0.977603
0.977994
0.977987
0.978134
0.978191
0.979319
0.97919
0.979241
0.979146
0.979057
0.979002
0.978715
0.978713
0.978145
0.978216
0.977275
0.977439
0.976033
0.976306
0.974355
0.974746
0.972185
0.972701
0.969474
0.970115
0.966183
0.966941
0.962279
0.963141
0.957737
0.958685
0.952549
0.953553
0.946715
0.947739
0.940254
0.941252
0.933199
0.934115
0.9256
0.926369
0.917524
0.918071
0.909054
0.909299
0.900289
0.900145
0.891344
0.890713
0.882352
0.881134
0.873456
0.871551
0.864816
0.862123
0.856603
0.853022
0.848997
0.844433
0.842185
0.836556
0.836356
0.829601
0.83169
0.823765
0.828351
0.819237
0.826475
0.816199
0.826163
0.814781
0.827461
0.815079
0.830364
0.817114
0.83482
0.820856
0.840732
0.826228
0.847965
0.833106
0.856364
0.841318
0.865762
0.850688
0.875994
0.861033
0.886895
0.872174
0.898304
0.883935
0.910075
0.896143
0.92207
0.90865
0.934162
0.92132
0.946237
0.934018
0.958183
0.946634
0.969903
0.959052
0.981306
0.971176
0.992308
0.982916
1.00283
0.994192
1.01281
1.00493
1.02218
1.01505
1.03087
1.02449
1.03885
1.03321
1.04606
1.04115
1.05245
1.04825
1.058
1.05449
1.06267
1.05983
1.06644
1.06424
1.06928
1.06769
1.07119
1.07017
1.07214
1.07167
1.07214
1.07216
1.07119
1.07167
1.06928
1.07017
1.06644
1.06769
1.06267
1.06424
1.058
1.05983
1.05245
1.05449
1.04606
1.04825
1.03885
1.04115
1.03087
1.03321
1.02218
1.02449
1.01281
1.01505
1.00283
1.00493
0.992308
0.994192
0.981305
0.982917
0.969903
0.971175
0.958183
0.95905
0.946237
0.946635
0.934163
0.93402
0.92207
0.92132
0.910075
0.90865
0.898304
0.896143
0.886895
0.883935
0.875995
0.872175
0.865763
0.861035
0.856364
0.850687
0.847965
0.841318
0.840732
0.833106
0.83482
0.826228
0.830364
0.820856
0.827461
0.817114
0.826163
0.815079
0.826475
0.814781
0.828351
0.816199
0.83169
0.819237
0.836356
0.823765
0.842185
0.829601
0.848997
0.836556
0.856603
0.844433
0.864817
0.853023
0.873456
0.862123
0.882352
0.871551
0.891345
0.881134
0.900289
0.890713
0.909054
0.900144
0.917524
0.909299
0.925599
0.918071
0.933199
0.926369
0.940253
0.934114
0.946715
0.941252
0.952549
0.947739
0.957737
0.953553
0.962279
0.958685
0.966183
0.963141
0.969475
0.966942
0.972185
0.970115
0.974355
0.972701
0.976033
0.974747
0.977275
0.976306
0.978145
0.977439
0.978715
0.978216
0.979057
0.978713
0.979241
0.979002
0.979319
0.979146
0.980338
0.980531
0.980297
0.98052
0.980183
0.980472
0.979941
0.980345
0.979502
0.980077
0.978791
0.979594
0.977738
0.978824
0.976283
0.977701
0.974371
0.976169
0.971958
0.974178
0.969003
0.971687
0.965476
0.968662
0.961352
0.965076
0.95662
0.960912
0.951278
0.956165
0.94534
0.950844
0.938834
0.94497
0.931803
0.93858
0.924306
0.931726
0.916417
0.924476
0.908227
0.916912
0.899842
0.909131
0.891384
0.901244
0.882991
0.893377
0.874812
0.885667
0.86701
0.878264
0.859762
0.871327
0.853249
0.865022
0.847656
0.859516
0.843159
0.854976
0.839924
0.851554
0.838085
0.849382
0.837744
0.848564
0.838948
0.849163
0.841696
0.851194
0.845935
0.854631
0.851571
0.859405
0.85847
0.865412
0.866479
0.872522
0.875436
0.880593
0.885175
0.889476
0.895537
0.899019
0.906364
0.909078
0.917515
0.919516
0.928859
0.930205
0.940273
0.941025
0.95165
0.951867
0.962885
0.962631
0.973889
0.973225
0.984576
0.983563
0.994871
0.99357
1.0047
1.00317
1.01401
1.01231
1.02274
1.02092
1.03083
1.02896
1.03824
1.03637
1.04493
1.04311
1.05087
1.04915
1.05601
1.05444
1.06034
1.05897
1.06382
1.06271
1.06645
1.06564
1.06822
1.06774
1.0691
1.06901
1.0691
1.06943
1.06822
1.06901
1.06645
1.06774
1.06382
1.06564
1.06034
1.06271
1.05601
1.05897
1.05087
1.05444
1.04493
1.04915
1.03824
1.04311
1.03083
1.03637
1.02274
1.02896
1.01401
1.02092
1.0047
1.01231
0.994871
1.00317
0.984576
0.993569
0.973889
0.983563
0.962885
0.973225
0.95165
0.962631
0.940274
0.951867
0.928859
0.941025
0.917515
0.930205
0.906364
0.919516
0.895537
0.909078
0.885176
0.899019
0.875436
0.889476
0.866479
0.880594
0.858469
0.872523
0.851571
0.865412
0.845935
0.859405
0.841696
0.854631
0.838948
0.851194
0.837744
0.849163
0.838085
0.848564
0.839924
0.849382
0.843159
0.851554
0.847656
0.854976
0.853249
0.859516
0.859762
0.865022
0.867011
0.871327
0.874812
0.878264
0.882991
0.885667
0.891384
0.893377
0.899842
0.901244
0.908227
0.909131
0.916417
0.916912
0.924305
0.924476
0.931803
0.931726
0.938834
0.93858
0.94534
0.94497
0.951278
0.950844
0.95662
0.956165
0.961352
0.960912
0.965476
0.965076
0.969003
0.968662
0.971957
0.971687
0.974371
0.974178
0.976283
0.976169
0.977738
0.977701
0.978791
0.978824
0.979502
0.979594
0.979941
0.980077
0.980183
0.980345
0.980297
0.980472
0.980338
0.98052
0.981818
0.981565
0.981846
0.98157
0.981873
0.981571
0.98184
0.98152
0.981678
0.981353
0.981311
0.980996
0.980669
0.980375
0.979691
0.979428
0.978326
0.9781
0.976533
0.976348
0.974275
0.97413
0.971522
0.971415
0.968254
0.968177
0.96446
0.964398
0.960143
0.960072
0.955315
0.955205
0.950006
0.949816
0.944256
0.943938
0.938121
0.937616
0.931669
0.930914
0.924984
0.923904
0.918158
0.916678
0.9113
0.909337
0.904527
0.901998
0.897967
0.894791
0.891759
0.887855
0.886046
0.881342
0.880975
0.87541
0.876692
0.870221
0.873336
0.865932
0.871029
0.862693
0.869872
0.860631
0.869933
0.859848
0.871247
0.860405
0.873806
0.862319
0.877568
0.865566
0.882455
0.870079
0.888368
0.875757
0.895185
0.882475
0.902778
0.890096
0.911016
0.898473
0.919766
0.907463
0.928906
0.916925
0.938315
0.926728
0.947883
0.93675
0.95751
0.946876
0.967101
0.957006
0.976571
0.967044
0.985843
0.976906
0.994844
0.986513
1.00351
0.995796
1.01179
1.00469
1.01961
1.01314
1.02695
1.02109
1.03375
1.0285
1.03997
1.03533
1.04558
1.04153
1.05056
1.04707
1.05487
1.05194
1.0585
1.05609
1.06142
1.05952
1.06363
1.0622
1.0651
1.06413
1.06584
1.06529
1.06584
1.06568
1.0651
1.06529
1.06363
1.06413
1.06142
1.0622
1.0585
1.05952
1.05487
1.05609
1.05056
1.05194
1.04558
1.04707
1.03997
1.04153
1.03375
1.03533
1.02695
1.0285
1.01961
1.02109
1.01179
1.01314
1.00351
1.00469
0.994844
0.995796
0.985843
0.986513
0.976571
0.976906
0.967101
0.967044
0.95751
0.957006
0.947884
0.946877
0.938315
0.93675
0.928906
0.926729
0.919766
0.916925
0.911016
0.907463
0.902778
0.898474
0.895185
0.890096
0.888368
0.882475
0.882455
0.875757
0.877568
0.870079
0.873806
0.865566
0.871247
0.862319
0.869933
0.860405
0.869872
0.859848
0.871029
0.860631
0.873336
0.862693
0.876692
0.865932
0.880975
0.870221
0.886046
0.87541
0.891759
0.881342
0.897967
0.887855
0.904527
0.894791
0.9113
0.901998
0.918158
0.909337
0.924984
0.916678
0.931669
0.923904
0.938121
0.930914
0.944256
0.937617
0.950006
0.943938
0.955315
0.949816
0.960142
0.955205
0.96446
0.960072
0.968254
0.964398
0.971522
0.968177
0.974275
0.971415
0.976533
0.97413
0.978326
0.976348
0.979691
0.9781
0.980669
0.979428
0.981311
0.980375
0.981678
0.980996
0.98184
0.981353
0.981873
0.98152
0.981846
0.981571
0.981818
0.98157
0.98279
0.983102
0.982848
0.983147
0.98293
0.983265
0.982975
0.983407
0.982909
0.983504
0.982654
0.983475
0.982142
0.983243
0.981317
0.982742
0.980131
0.981915
0.978545
0.980718
0.976526
0.979112
0.974046
0.977068
0.971088
0.974562
0.967641
0.971581
0.963707
0.968124
0.9593
0.964201
0.954446
0.959834
0.949182
0.955058
0.94356
0.94992
0.937641
0.944478
0.931501
0.9388
0.925227
0.932968
0.918917
0.927071
0.912679
0.92121
0.906632
0.915494
0.900903
0.910037
0.895627
0.904963
0.890942
0.900398
0.886984
0.896467
0.883884
0.893291
0.881758
0.890981
0.880701
0.889629
0.880779
0.889306
0.882022
0.890053
0.884427
0.891881
0.887952
0.894766
0.892525
0.898658
0.898051
0.90348
0.904415
0.909136
0.911496
0.915521
0.919169
0.92252
0.927309
0.930021
0.935797
0.93791
0.944523
0.946081
0.953383
0.954433
0.962281
0.962873
0.971131
0.971315
0.979855
0.97968
0.988381
0.987896
0.996644
0.995898
1.00459
1.00363
1.01216
1.01103
1.01931
1.01806
1.026
1.02467
1.03219
1.03083
1.03786
1.0365
1.04296
1.04164
1.04748
1.04625
1.05139
1.05028
1.05468
1.05373
1.05732
1.05657
1.05932
1.05879
1.06066
1.06038
1.06132
1.06134
1.06132
1.06166
1.06066
1.06134
1.05932
1.06038
1.05732
1.05879
1.05468
1.05657
1.05139
1.05373
1.04748
1.05028
1.04296
1.04625
1.03786
1.04164
1.0322
1.0365
1.026
1.03083
1.01931
1.02467
1.01216
1.01806
1.00459
1.01103
0.996644
1.00363
0.988381
0.995898
0.979855
0.987896
0.971131
0.97968
0.962281
0.971315
0.953383
0.962873
0.944523
0.954433
0.935797
0.946081
0.927309
0.93791
0.919169
0.930021
0.911496
0.92252
0.904415
0.915521
0.898051
0.909136
0.892525
0.903479
0.887952
0.898658
0.884427
0.894766
0.882022
0.891881
0.880779
0.890053
0.880701
0.889306
0.881758
0.889629
0.883884
0.890981
0.886984
0.893291
0.890942
0.896467
0.895627
0.900398
0.900903
0.904963
0.906632
0.910037
0.912679
0.915494
0.918917
0.921211
0.925228
0.927072
0.931501
0.932968
0.937641
0.9388
0.94356
0.944478
0.949182
0.94992
0.954446
0.955059
0.9593
0.959834
0.963707
0.964201
0.967641
0.968124
0.971088
0.971581
0.974046
0.974562
0.976526
0.977068
0.978545
0.979113
0.980131
0.980718
0.981317
0.981915
0.982142
0.982742
0.982654
0.983243
0.982909
0.983475
0.982975
0.983504
0.98293
0.983407
0.982848
0.983265
0.98279
0.983147
0.984324
0.983908
0.984471
0.983967
0.984727
0.984124
0.985024
0.984326
0.985276
0.984496
0.985395
0.984552
0.985304
0.984416
0.984938
0.984024
0.984247
0.983324
0.983191
0.982276
0.98174
0.980847
0.979871
0.97901
0.977572
0.976747
0.97484
0.974047
0.971685
0.970912
0.968126
0.967351
0.964195
0.963387
0.959931
0.959053
0.955385
0.954391
0.950616
0.949454
0.945692
0.944305
0.940687
0.939017
0.935686
0.93367
0.930777
0.928355
0.926059
0.923171
0.921633
0.918224
0.917604
0.913625
0.914079
0.909489
0.911161
0.905933
0.908945
0.903066
0.907515
0.900991
0.906939
0.899794
0.90726
0.899538
0.908498
0.900263
0.910648
0.901976
0.913677
0.904659
0.917533
0.908263
0.922142
0.912717
0.927419
0.917934
0.933271
0.923814
0.9396
0.930252
0.94631
0.937142
0.953305
0.94438
0.960497
0.951866
0.967799
0.959506
0.975134
0.967216
0.98243
0.974914
0.989621
0.98253
0.996649
0.989999
1.00346
0.997261
1.01
1.00426
1.01624
1.01096
1.02213
1.01731
1.02763
1.02327
1.03273
1.02882
1.03738
1.03392
1.04157
1.03854
1.04528
1.04267
1.0485
1.04629
1.05119
1.04937
1.05336
1.05191
1.055
1.0539
1.0561
1.05533
1.05665
1.05619
1.05665
1.05647
1.0561
1.05619
1.055
1.05533
1.05336
1.0539
1.05119
1.05192
1.0485
1.04937
1.04528
1.04629
1.04157
1.04267
1.03738
1.03854
1.03273
1.03392
1.02763
1.02882
1.02213
1.02327
1.01624
1.01731
1.01
1.01096
1.00346
1.00426
0.996649
0.997261
0.989621
0.989998
0.98243
0.98253
0.975134
0.974914
0.967799
0.967215
0.960497
0.959506
0.953306
0.951866
0.94631
0.94438
0.9396
0.937142
0.933271
0.930252
0.927419
0.923814
0.922142
0.917934
0.917533
0.912717
0.913677
0.908263
0.910648
0.904659
0.908498
0.901976
0.90726
0.900263
0.906939
0.899538
0.907515
0.899794
0.908945
0.900991
0.911161
0.903066
0.914079
0.905933
0.917605
0.909489
0.921633
0.913625
0.926059
0.918224
0.930777
0.923171
0.935686
0.928355
0.940687
0.93367
0.945692
0.939017
0.950616
0.944305
0.955385
0.949454
0.959931
0.954391
0.964195
0.959053
0.968126
0.963387
0.971685
0.967351
0.97484
0.970912
0.977572
0.974047
0.979871
0.976747
0.98174
0.97901
0.983191
0.980847
0.984247
0.982276
0.984938
0.983324
0.985304
0.984024
0.985395
0.984416
0.985276
0.984552
0.985024
0.984496
0.984727
0.984326
0.984471
0.984124
0.984324
0.983967
0.984881
0.985335
0.985054
0.985444
0.985357
0.98575
0.985714
0.986188
0.986034
0.986667
0.986226
0.987087
0.986214
0.987352
0.985938
0.987385
0.985354
0.987129
0.984428
0.98654
0.983134
0.985586
0.981456
0.984249
0.979386
0.982516
0.976925
0.98039
0.974083
0.97788
0.970882
0.975005
0.96735
0.971796
0.963524
0.968289
0.959449
0.964526
0.955179
0.96056
0.950774
0.956445
0.9463
0.952245
0.941832
0.948029
0.937451
0.943869
0.933242
0.939847
0.929299
0.936045
0.925715
0.93255
0.922586
0.929449
0.920005
0.92683
0.918058
0.924774
0.91682
0.923354
0.916351
0.922629
0.916691
0.922645
0.917858
0.923427
0.919846
0.924979
0.922625
0.927285
0.926147
0.930309
0.930347
0.933998
0.935147
0.938287
0.940462
0.943102
0.946203
0.948362
0.95228
0.953985
0.958609
0.959889
0.965106
0.965996
0.971695
0.97223
0.978303
0.978522
0.984867
0.984807
0.991328
0.991025
0.997631
0.997123
1.00373
1.00305
1.00958
1.00877
1.01515
1.01423
1.0204
1.01942
1.0253
1.02428
1.02983
1.0288
1.03397
1.03295
1.03769
1.03672
1.04097
1.04008
1.04382
1.04303
1.0462
1.04554
1.04812
1.04761
1.04957
1.04922
1.05054
1.05038
1.05102
1.05108
1.05102
1.05131
1.05054
1.05108
1.04957
1.05038
1.04812
1.04922
1.0462
1.04761
1.04382
1.04554
1.04097
1.04303
1.03769
1.04008
1.03397
1.03672
1.02983
1.03295
1.0253
1.0288
1.0204
1.02428
1.01515
1.01942
1.00958
1.01423
1.00373
1.00877
0.997631
1.00305
0.991328
0.997123
0.984867
0.991025
0.978303
0.984807
0.971695
0.978522
0.965106
0.97223
0.958609
0.965996
0.95228
0.959889
0.946203
0.953985
0.940462
0.948362
0.935147
0.943102
0.930347
0.938287
0.926147
0.933998
0.922625
0.930309
0.919846
0.927285
0.917858
0.924979
0.916691
0.923427
0.916351
0.922645
0.91682
0.922629
0.918058
0.923354
0.920005
0.924774
0.922586
0.92683
0.925715
0.929449
0.929299
0.93255
0.933242
0.936045
0.937451
0.939847
0.941832
0.94387
0.9463
0.948029
0.950774
0.952245
0.955179
0.956445
0.959449
0.96056
0.963524
0.964526
0.96735
0.968289
0.970882
0.971796
0.974083
0.975005
0.976925
0.97788
0.979386
0.98039
0.981456
0.982516
0.983134
0.984249
0.984428
0.985586
0.985354
0.98654
0.985938
0.987129
0.986214
0.987385
0.986226
0.987352
0.986034
0.987087
0.985714
0.986667
0.985357
0.986188
0.985054
0.985749
0.984881
0.985444
0.986163
0.985573
0.986447
0.985696
0.986962
0.986038
0.987615
0.986529
0.988289
0.987069
0.988868
0.987552
0.989257
0.987881
0.989382
0.987985
0.989196
0.987809
0.988666
0.987318
0.987775
0.986488
0.986517
0.985305
0.984896
0.983765
0.982925
0.98187
0.980628
0.979635
0.97803
0.977078
0.975168
0.974228
0.97208
0.971117
0.968809
0.967786
0.965402
0.964278
0.961911
0.960644
0.958393
0.956939
0.954906
0.953223
0.951517
0.949562
0.948292
0.946026
0.945302
0.942689
0.942619
0.939629
0.940313
0.936922
0.938454
0.934646
0.937103
0.932872
0.936312
0.931664
0.936124
0.931075
0.936565
0.931144
0.937647
0.931893
0.939363
0.933326
0.941691
0.935426
0.944596
0.938162
0.948028
0.941488
0.951931
0.945345
0.956239
0.949665
0.960885
0.954378
0.965801
0.95941
0.970919
0.964686
0.976174
0.970137
0.981504
0.975695
0.986852
0.981297
0.992164
0.986885
0.997394
0.992407
1.0025
0.997814
1.00744
1.00306
1.01217
1.00812
1.01668
1.01295
1.02093
1.01751
1.02489
1.0218
1.02855
1.02577
1.03189
1.02942
1.0349
1.03273
1.03755
1.03567
1.03985
1.03825
1.04178
1.04044
1.04332
1.04225
1.04449
1.04366
1.04527
1.04468
1.04566
1.04528
1.04566
1.04549
1.04527
1.04528
1.04449
1.04468
1.04332
1.04366
1.04178
1.04225
1.03985
1.04044
1.03755
1.03825
1.0349
1.03567
1.03189
1.03273
1.02855
1.02942
1.02489
1.02577
1.02093
1.0218
1.01668
1.01751
1.01217
1.01295
1.00744
1.00812
1.0025
1.00306
0.997394
0.997814
0.992164
0.992407
0.986852
0.986885
0.981504
0.981297
0.976174
0.975695
0.970919
0.970137
0.965801
0.964686
0.960885
0.95941
0.956239
0.954378
0.951931
0.949665
0.948028
0.945345
0.944596
0.941488
0.941691
0.938162
0.939363
0.935426
0.937647
0.933326
0.936565
0.931893
0.936124
0.931144
0.936312
0.931075
0.937103
0.931664
0.938454
0.932872
0.940313
0.934646
0.942619
0.936922
0.945302
0.939629
0.948292
0.942689
0.951517
0.946026
0.954906
0.949562
0.958393
0.953223
0.961911
0.956939
0.965402
0.960644
0.968809
0.964278
0.97208
0.967786
0.975169
0.971117
0.978031
0.974228
0.980628
0.977078
0.982925
0.979635
0.984896
0.98187
0.986517
0.983765
0.987775
0.985305
0.988666
0.986488
0.989196
0.987318
0.989382
0.987809
0.989257
0.987985
0.988868
0.987882
0.988289
0.987552
0.987615
0.987069
0.986962
0.986529
0.986447
0.986038
0.986163
0.985696
0.986067
0.986651
0.986378
0.986835
0.986941
0.987353
0.987652
0.988117
0.988388
0.988996
0.989029
0.989853
0.98948
0.990563
0.989675
0.991034
0.98957
0.991207
0.989144
0.991047
0.988385
0.990538
0.987293
0.989681
0.985875
0.988485
0.984148
0.986968
0.982133
0.985155
0.979856
0.983074
0.97735
0.980758
0.974648
0.978242
0.971789
0.975565
0.968815
0.972765
0.965771
0.969887
0.962708
0.966975
0.959676
0.964079
0.956734
0.96125
0.953941
0.958542
0.951357
0.956014
0.949048
0.953722
0.947073
0.951724
0.945493
0.950077
0.94436
0.948832
0.943721
0.948035
0.943611
0.947722
0.944052
0.947919
0.945054
0.948642
0.946611
0.949891
0.948703
0.951654
0.951298
0.953907
0.954353
0.956615
0.957817
0.959735
0.961635
0.963217
0.965746
0.967007
0.970089
0.971049
0.974606
0.975285
0.979237
0.97966
0.983929
0.984122
0.988632
0.98862
0.993297
0.993108
0.997884
0.997544
1.00235
1.00189
1.00667
1.00611
1.01081
1.01017
1.01474
1.01404
1.01844
1.01771
1.02189
1.02115
1.02507
1.02434
1.02797
1.02727
1.03058
1.02992
1.03288
1.03228
1.03487
1.03435
1.03653
1.03611
1.03787
1.03756
1.03888
1.03869
1.03955
1.0395
1.03989
1.03998
1.03989
1.04015
1.03955
1.03998
1.03888
1.0395
1.03787
1.03869
1.03653
1.03756
1.03487
1.03611
1.03288
1.03435
1.03058
1.03228
1.02797
1.02992
1.02507
1.02727
1.02189
1.02434
1.01844
1.02115
1.01474
1.01771
1.01081
1.01404
1.00667
1.01017
1.00235
1.00611
0.997884
1.00189
0.993297
0.997543
0.988632
0.993108
0.983929
0.98862
0.979237
0.984122
0.974606
0.97966
0.970089
0.975285
0.965746
0.971049
0.961635
0.967007
0.957817
0.963217
0.954353
0.959735
0.951298
0.956615
0.948703
0.953907
0.946611
0.951654
0.945054
0.949891
0.944052
0.948642
0.943611
0.947919
0.943721
0.947722
0.94436
0.948035
0.945493
0.948832
0.947073
0.950077
0.949048
0.951724
0.951357
0.953722
0.953941
0.956014
0.956734
0.958542
0.959676
0.96125
0.962708
0.964079
0.965771
0.966975
0.968815
0.969887
0.971789
0.972765
0.974648
0.975565
0.97735
0.978242
0.979856
0.980758
0.982133
0.983074
0.984148
0.985155
0.985875
0.986968
0.987293
0.988485
0.988385
0.989681
0.989144
0.990538
0.98957
0.991047
0.989675
0.991207
0.98948
0.991034
0.989029
0.990563
0.988388
0.989853
0.987652
0.988997