# vtk DataFile Version 2.0
2D Unstructured Grid of Linear Triangles
ASCII

DATASET UNSTRUCTURED_GRID
POINTS 1326 float
0 0 0.00
0.02 0 0.00
0.04 0 0.00
0.06 0 0.00
0.08 0 0.00
0.1 0 0.00
0.12 0 0.00
0.14 0 0.00
0.16 0 0.00
0.18 0 0.00
0.2 0 0.00
0.22 0 0.00
0.24 0 0.00
0.26 0 0.00
0.28 0 0.00
0.3 0 0.00
0.32 0 0.00
0.34 0 0.00
0.36 0 0.00
0.38 0 0.00
0.4 0 0.00
0.42 0 0.00
0.44 0 0.00
0.46 0 0.00
0.48 0 0.00
0.5 0 0.00
0.52 0 0.00
0.54 0 0.00
0.56 0 0.00
0.58 0 0.00
0.6 0 0.00
0.62 0 0.00
0.64 0 0.00
0.66 0 0.00
0.68 0 0.00
0.7 0 0.00
0.72 0 0.00
0.74 0 0.00
0.76 0 0.00
0.78 0 0.00
0.8 0 0.00
0.82 0 0.00
0.84 0 0.00
0.86 0 0.00
0.88 0 0.00
0.9 0 0.00
0.92 0 0.00
0.94 0 0.00
0.96 0 0.00
0.98 0 0.00
1 0 0.00
0 0.02 0.00
0.02 0.02 0.00
0.04 0.02 0.00
0.06 0.02 0.00
0.08 0.02 0.00
0.1 0.02 0.00
0.12 0.02 0.00
0.14 0.02 0.00
0.16 0.02 0.00
0.18 0.02 0.00
0.2 0.02 0.00
0.22 0.02 0.00
0.24 0.02 0.00
0.26 0.02 0.00
0.28 0.02 0.00
0.3 0.02 0.00
0.32 0.02 0.00
0.34 0.02 0.00
0.36 0.02 0.00
0.38 0.02 0.00
0.4 0.02 0.00
0.42 0.02 0.00
0.44 0.02 0.00
0.46 0.02 0.00
0.48 0.02 0.00
0.5 0.02 0.00
0.52 0.02 0.00
0.54 0.02 0.00
0.56 0.02 0.00
0.58 0.02 0.00
0.6 0.02 0.00
0.62 0.02 0.00
0.64 0.02 0.00
0.66 0.02 0.00
0.68 0.02 0.00
0.7 0.02 0.00
0.72 0.02 0.00
0.74 0.02 0.00
0.76 0.02 0.00
0.78 0.02 0.00
0.8 0.02 0.00
0.82 0.02 0.00
0.84 0.02 0.00
0.86 0.02 0.00
0.88 0.02 0.00
0.9 0.02 0.00
0.92 0.02 0.00
0.94 0.02 0.00
0.96 0.02 0.00
0.98 0.02 0.00
1 0.02 0.00
0 0.04 0.00
0.02 0.04 0.00
0.04 0.04 0.00
0.06 0.04 0.00
0.08 0.04 0.00
0.1 0.04 0.00
0.12 0.04 0.00
0.14 0.04 0.00
0.16 0.04 0.00
0.18 0.04 0.00
0.2 0.04 0.00
0.22 0.04 0.00
0.24 0.04 0.00
0.26 0.04 0.00
0.28 0.04 0.00
0.3 0.04 0.00
0.32 0.04 0.00
0.34 0.04 0.00
0.36 0.04 0.00
0.38 0.04 0.00
0.4 0.04 0.00
0.42 0.04 0.00
0.44 0.04 0.00
0.46 0.04 0.00
0.48 0.04 0.00
0.5 0.04 0.00
0.52 0.04 0.00
0.54 0.04 0.00
0.56 0.04 0.00
0.58 0.04 0.00
0.6 0.04 0.00
0.62 0.04 0.00
0.64 0.04 0.00
0.66 0.04 0.00
0.68 0.04 0.00
0.7 0.04 0.00
0.72 0.04 0.00
0.74 0.04 0.00
0.76 0.04 0.00
0.78 0.04 0.00
0.8 0.04 0.00
0.82 0.04 0.00
0.84 0.04 0.00
0.86 0.04 0.00
0.88 0.04 0.00
0.9 0.04 0.00
0.92 0.04 0.00
0.94 0.04 0.00
0.96 0.04 0.00
0.98 0.04 0.00
1 0.04 0.00
0 0.06 0.00
0.02 0.06 0.00
0.04 0.06 0.00
0.06 0.06 0.00
0.08 0.06 0.00
0.1 0.06 0.00
0.12 0.06 0.00
0.14 0.06 0.00
0.16 0.06 0.00
0.18 0.06 0.00
0.2 0.06 0.00
0.22 0.06 0.00
0.24 0.06 0.00
0.26 0.06 0.00
0.28 0.06 0.00
0.3 0.06 0.00
0.32 0.06 0.00
0.34 0.06 0.00
0.36 0.06 0.00
0.38 0.06 0.00
0.4 0.06 0.00
0.42 0.06 0.00
0.44 0.06 0.00
0.46 0.06 0.00
0.48 0.06 0.00
0.5 0.06 0.00
0.52 0.06 0.00
0.54 0.06 0.00
0.56 0.06 0.00
0.58 0.06 0.00
0.6 0.06 0.00
0.62 0.06 0.00
0.64 0.06 0.00
0.66 0.06 0.00
0.68 0.06 0.00
0.7 0.06 0.00
0.72 0.06 0.00
0.74 0.06 0.00
0.76 0.06 0.00
0.78 0.06 0.00
0.8 0.06 0.00
0.82 0.06 0.00
0.84 0.06 0.00
0.86 0.06 0.00
0.88 0.06 0.00
0.9 0.06 0.00
0.92 0.06 0.00
0.94 0.06 0.00
0.96 0.06 0.00
0.98 0.06 0.00
1 0.06 0.00
0 0.08 0.00
0.02 0.08 0.00
0.04 0.08 0.00
0.06 0.08 0.00
0.08 0.08 0.00
0.1 0.08 0.00
0.12 0.08 0.00
0.14 0.08 0.00
0.16 0.08 0.00
0.18 0.08 0.00
0.2 0.08 0.00
0.22 0.08 0.00
0.24 0.08 0.00
0.26 0.08 0.00
0.28 0.08 0.00
0.3 0.08 0.00
0.32 0.08 0.00
0.34 0.08 0.00
0.36 0.08 0.00
0.38 0.08 0.00
0.4 0.08 0.00
0.42 0.08 0.00
0.44 0.08 0.00
0.46 0.08 0.00
0.48 0.08 0.00
0.5 0.08 0.00
0.52 0.08 0.00
0.54 0.08 0.00
0.56 0.08 0.00
0.58 0.08 0.00
0.6 0.08 0.00
0.62 0.08 0.00
0.64 0.08 0.00
0.66 0.08 0.00
0.68 0.08 0.00
0.7 0.08 0.00
0.72 0.08 0.00
0.74 0.08 0.00
0.76 0.08 0.00
0.78 0.08 0.00
0.8 0.08 0.00
0.82 0.08 0.00
0.84 0.08 0.00
0.86 0.08 0.00
0.88 0.08 0.00
0.9 0.08 0.00
0.92 0.08 0.00
0.94 0.08 0.00
0.96 0.08 0.00
0.98 0.08 0.00
1 0.08 0.00
0 0.1 0.00
0.02 0.1 0.00
0.04 0.1 0.00
0.06 0.1 0.00
0.08 0.1 0.00
0.1 0.1 0.00
0.12 0.1 0.00
0.14 0.1 0.00
0.16 0.1 0.00
0.18 0.1 0.00
0.2 0.1 0.00
0.22 0.1 0.00
0.24 0.1 0.00
0.26 0.1 0.00
0.28 0.1 0.00
0.3 0.1 0.00
0.32 0.1 0.00
0.34 0.1 0.00
0.36 0.1 0.00
0.38 0.1 0.00
0.4 0.1 0.00
0.42 0.1 0.00
0.44 0.1 0.00
0.46 0.1 0.00
0.48 0.1 0.00
0.5 0.1 0.00
0.52 0.1 0.00
0.54 0.1 0.00
0.56 0.1 0.00
0.58 0.1 0.00
0.6 0.1 0.00
0.62 0.1 0.00
0.64 0.1 0.00
0.66 0.1 0.00
0.68 0.1 0.00
0.7 0.1 0.00
0.72 0.1 0.00
0.74 0.1 0.00
0.76 0.1 0.00
0.78 0.1 0.00
0.8 0.1 0.00
0.82 0.1 0.00
0.84 0.1 0.00
0.86 0.1 0.00
0.88 0.1 0.00
0.9 0.1 0.00
0.92 0.1 0.00
0.94 0.1 0.00
0.96 0.1 0.00
0.98 0.1 0.00
1 0.1 0.00
0 0.12 0.00
0.02 0.12 0.00
0.04 0.12 0.00
0.06 0.12 0.00
0.08 0.12 0.00
0.1 0.12 0.00
0.12 0.12 0.00
0.14 0.12 0.00
0.16 0.12 0.00
0.18 0.12 0.00
0.2 0.12 0.00
0.22 0.12 0.00
0.24 0.12 0.00
0.26 0.12 0.00
0.28 0.12 0.00
0.3 0.12 0.00
0.32 0.12 0.00
0.34 0.12 0.00
0.36 0.12 0.00
0.38 0.12 0.00
0.4 0.12 0.00
0.42 0.12 0.00
0.44 0.12 0.00
0.46 0.12 0.00
0.48 0.12 0.00
0.5 0.12 0.00
0.52 0.12 0.00
0.54 0.12 0.00
0.56 0.12 0.00
0.58 0.12 0.00
0.6 0.12 0.00
0.62 0.12 0.00
0.64 0.12 0.00
0.66 0.12 0.00
0.68 0.12 0.00
0.7 0.12 0.00
0.72 0.12 0.00
0.74 0.12 0.00
0.76 0.12 0.00
0.78 0.12 0.00
0.8 0.12 0.00
0.82 0.12 0.00
0.84 0.12 0.00
0.86 0.12 0.00
0.88 0.12 0.00
0.9 0.12 0.00
0.92 0.12 0.00
0.94 0.12 0.00
0.96 0.12 0.00
0.98 0.12 0.00
1 0.12 0.00
0 0.14 0.00
0.02 0.14 0.00
0.04 0.14 0.00
0.06 0.14 0.00
0.08 0.14 0.00
0.1 0.14 0.00
0.12 0.14 0.00
0.14 0.14 0.00
0.16 0.14 0.00
0.18 0.14 0.00
0.2 0.14 0.00
0.22 0.14 0.00
0.24 0.14 0.00
0.26 0.14 0.00
0.28 0.14 0.00
0.3 0.14 0.00
0.32 0.14 0.00
0.34 0.14 0.00
0.36 0.14 0.00
0.38 0.14 0.00
0.4 0.14 0.00
0.42 0.14 0.00
0.44 0.14 0.00
0.46 0.14 0.00
0.48 0.14 0.00
0.5 0.14 0.00
0.52 0.14 0.00
0.54 0.14 0.00
0.56 0.14 0.00
0.58 0.14 0.00
0.6 0.14 0.00
0.62 0.14 0.00
0.64 0.14 0.00
0.66 0.14 0.00
0.68 0.14 0.00
0.7 0.14 0.00
0.72 0.14 0.00
0.74 0.14 0.00
0.76 0.14 0.00
0.78 0.14 0.00
0.8 0.14 0.00
0.82 0.14 0.00
0.84 0.14 0.00
0.86 0.14 0.00
0.88 0.14 0.00
0.9 0.14 0.00
0.92 0.14 0.00
0.94 0.14 0.00
0.96 0.14 0.00
0.98 0.14 0.00
1 0.14 0.00
0 0.16 0.00
0.02 0.16 0.00
0.04 0.16 0.00
0.06 0.16 0.00
0.08 0.16 0.00
0.1 0.16 0.00
0.12 0.16 0.00
0.14 0.16 0.00
0.16 0.16 0.00
0.18 0.16 0.00
0.2 0.16 0.00
0.22 0.16 0.00
0.24 0.16 0.00
0.26 0.16 0.00
0.28 0.16 0.00
0.3 0.16 0.00
0.32 0.16 0.00
0.34 0.16 0.00
0.36 0.16 0.00
0.38 0.16 0.00
0.4 0.16 0.00
0.42 0.16 0.00
0.44 0.16 0.00
0.46 0.16 0.00
0.48 0.16 0.00
0.5 0.16 0.00
0.52 0.16 0.00
0.54 0.16 0.00
0.56 0.16 0.00
0.58 0.16 0.00
0.6 0.16 0.00
0.62 0.16 0.00
0.64 0.16 0.00
0.66 0.16 0.00
0.68 0.16 0.00
0.7 0.16 0.00
0.72 0.16 0.00
0.74 0.16 0.00
0.76 0.16 0.00
0.78 0.16 0.00
0.8 0.16 0.00
0.82 0.16 0.00
0.84 0.16 0.00
0.86 0.16 0.00
0.88 0.16 0.00
0.9 0.16 0.00
0.92 0.16 0.00
0.94 0.16 0.00
0.96 0.16 0.00
0.98 0.16 0.00
1 0.16 0.00
0 0.18 0.00
0.02 0.18 0.00
0.04 0.18 0.00
0.06 0.18 0.00
0.08 0.18 0.00
0.1 0.18 0.00
0.12 0.18 0.00
0.14 0.18 0.00
0.16 0.18 0.00
0.18 0.18 0.00
0.2 0.18 0.00
0.22 0.18 0.00
0.24 0.18 0.00
0.26 0.18 0.00
0.28 0.18 0.00
0.3 0.18 0.00
0.32 0.18 0.00
0.34 0.18 0.00
0.36 0.18 0.00
0.38 0.18 0.00
0.4 0.18 0.00
0.42 0.18 0.00
0.44 0.18 0.00
0.46 0.18 0.00
0.48 0.18 0.00
0.5 0.18 0.00
0.52 0.18 0.00
0.54 0.18 0.00
0.56 0.18 0.00
0.58 0.18 0.00
0.6 0.18 0.00
0.62 0.18 0.00
0.64 0.18 0.00
0.66 0.18 0.00
0.68 0.18 0.00
0.7 0.18 0.00
0.72 0.18 0.00
0.74 0.18 0.00
0.76 0.18 0.00
0.78 0.18 0.00
0.8 0.18 0.00
0.82 0.18 0.00
0.84 0.18 0.00
0.86 0.18 0.00
0.88 0.18 0.00
0.9 0.18 0.00
0.92 0.18 0.00
0.94 0.18 0.00
0.96 0.18 0.00
0.98 0.18 0.00
1 0.18 0.00
0 0.2 0.00
0.02 0.2 0.00
0.04 0.2 0.00
0.06 0.2 0.00
0.08 0.2 0.00
0.1 0.2 0.00
0.12 0.2 0.00
0.14 0.2 0.00
0.16 0.2 0.00
0.18 0.2 0.00
0.2 0.2 0.00
0.22 0.2 0.00
0.24 0.2 0.00
0.26 0.2 0.00
0.28 0.2 0.00
0.3 0.2 0.00
0.32 0.2 0.00
0.34 0.2 0.00
0.36 0.2 0.00
0.38 0.2 0.00
0.4 0.2 0.00
0.42 0.2 0.00
0.44 0.2 0.00
0.46 0.2 0.00
0.48 0.2 0.00
0.5 0.2 0.00
0.52 0.2 0.00
0.54 0.2 0.00
0.56 0.2 0.00
0.58 0.2 0.00
0.6 0.2 0.00
0.62 0.2 0.00
0.64 0.2 0.00
0.66 0.2 0.00
0.68 0.2 0.00
0.7 0.2 0.00
0.72 0.2 0.00
0.74 0.2 0.00
0.76 0.2 0.00
0.78 0.2 0.00
0.8 0.2 0.00
0.82 0.2 0.00
0.84 0.2 0.00
0.86 0.2 0.00
0.88 0.2 0.00
0.9 0.2 0.00
0.92 0.2 0.00
0.94 0.2 0.00
0.96 0.2 0.00
0.98 0.2 0.00
1 0.2 0.00
0 0.22 0.00
0.02 0.22 0.00
0.04 0.22 0.00
0.06 0.22 0.00
0.08 0.22 0.00
0.1 0.22 0.00
0.12 0.22 0.00
0.14 0.22 0.00
0.16 0.22 0.00
0.18 0.22 0.00
0.2 0.22 0.00
0.22 0.22 0.00
0.24 0.22 0.00
0.26 0.22 0.00
0.28 0.22 0.00
0.3 0.22 0.00
0.32 0.22 0.00
0.34 0.22 0.00
0.36 0.22 0.00
0.38 0.22 0.00
0.4 0.22 0.00
0.42 0.22 0.00
0.44 0.22 0.00
0.46 0.22 0.00
0.48 0.22 0.00
0.5 0.22 0.00
0.52 0.22 0.00
0.54 0.22 0.00
0.56 0.22 0.00
0.58 0.22 0.00
0.6 0.22 0.00
0.62 0.22 0.00
0.64 0.22 0.00
0.66 0.22 0.00
0.68 0.22 0.00
0.7 0.22 0.00
0.72 0.22 0.00
0.74 0.22 0.00
0.76 0.22 0.00
0.78 0.22 0.00
0.8 0.22 0.00
0.82 0.22 0.00
0.84 0.22 0.00
0.86 0.22 0.00
0.88 0.22 0.00
0.9 0.22 0.00
0.92 0.22 0.00
0.94 0.22 0.00
0.96 0.22 0.00
0.98 0.22 0.00
1 0.22 0.00
0 0.24 0.00
0.02 0.24 0.00
0.04 0.24 0.00
0.06 0.24 0.00
0.08 0.24 0.00
0.1 0.24 0.00
0.12 0.24 0.00
0.14 0.24 0.00
0.16 0.24 0.00
0.18 0.24 0.00
0.2 0.24 0.00
0.22 0.24 0.00
0.24 0.24 0.00
0.26 0.24 0.00
0.28 0.24 0.00
0.3 0.24 0.00
0.32 0.24 0.00
0.34 0.24 0.00
0.36 0.24 0.00
0.38 0.24 0.00
0.4 0.24 0.00
0.42 0.24 0.00
0.44 0.24 0.00
0.46 0.24 0.00
0.48 0.24 0.00
0.5 0.24 0.00
0.52 0.24 0.00
0.54 0.24 0.00
0.56 0.24 0.00
0.58 0.24 0.00
0.6 0.24 0.00
0.62 0.24 0.00
0.64 0.24 0.00
0.66 0.24 0.00
0.68 0.24 0.00
0.7 0.24 0.00
0.72 0.24 0.00
0.74 0.24 0.00
0.76 0.24 0.00
0.78 0.24 0.00
0.8 0.24 0.00
0.82 0.24 0.00
0.84 0.24 0.00
0.86 0.24 0.00
0.88 0.24 0.00
0.9 0.24 0.00
0.92 0.24 0.00
0.94 0.24 0.00
0.96 0.24 0.00
0.98 0.24 0.00
1 0.24 0.00
0 0.26 0.00
0.02 0.26 0.00
0.04 0.26 0.00
0.06 0.26 0.00
0.08 0.26 0.00
0.1 0.26 0.00
0.12 0.26 0.00
0.14 0.26 0.00
0.16 0.26 0.00
0.18 0.26 0.00
0.2 0.26 0.00
0.22 0.26 0.00
0.24 0.26 0.00
0.26 0.26 0.00
0.28 0.26 0.00
0.3 0.26 0.00
0.32 0.26 0.00
0.34 0.26 0.00
0.36 0.26 0.00
0.38 0.26 0.00
0.4 0.26 0.00
0.42 0.26 0.00
0.44 0.26 0.00
0.46 0.26 0.00
0.48 0.26 0.00
0.5 0.26 0.00
[...]
CELL_DATA 2500
SCALARS u float
LOOKUP_TABLE default
0.0448057
0.0408992
0.0387847
0.0384357
0.0398435
0.0430158
0.0479733
0.0547455
0.0633648
0.0738591
0.0862444
0.100517
0.116643
0.134557
0.154145
0.17525
0.197663
0.22112
0.245311
0.269877
0.294419
0.31851
0.341704
0.363549
0.383606
0.401458
0.416731
0.429106
0.43833
0.44423
0.446719
0.445801
0.441575
0.43423
0.424045
0.411378
0.39666
0.380378
0.363069
0.345299
0.327652
0.310714
0.295059
0.281231
0.269735
0.261024
0.255484
0.253431
0.255095
0.260621
0.270062
0.283375
0.300427
0.320991
0.344754
0.371325
0.400241
0.430978
0.462965
0.495595
0.528237
0.560257
0.591024
0.619927
0.646392
0.669886
0.689936
0.706135
0.71815
0.725731
0.728711
0.727016
0.720659
0.709744
0.694458
0.67507
0.651919
0.625408
0.595991
0.564162
0.530439
0.495355
0.45944
0.423208
0.387148
0.351712
0.317306
0.284283
0.252942
0.223521
0.196204
0.171119
0.148342
0.127909
0.109816
0.0940313
0.0805026
0.0691651
0.0599489
0.0527863
0.0408992
0.0387847
0.0384357
0.0398435
0.0430158
0.0479733
0.0547455
0.0633648
0.0738591
0.0862444
0.100517
0.116643
0.134557
0.154145
0.17525
0.197663
0.22112
0.245311
0.269877
0.294419
0.31851
0.341704
0.363549
0.383606
0.401458
0.416731
0.429106
0.43833
0.44423
0.446719
0.445801
0.441575
0.43423
0.424045
0.411378
0.39666
0.380378
0.363069
0.345299
0.327652
0.310714
0.295059
0.281231
0.269735
0.261024
0.255484
0.253431
0.255095
0.260621
0.270062
0.283375
0.300427
0.320991
0.344754
0.371325
0.400241
0.430978
0.462965
0.495595
0.528237
0.560257
0.591024
0.619927
0.646392
0.669886
0.689936
0.706135
0.71815
0.725731
0.728711
0.727016
0.720659
0.709744
0.694458
0.67507
0.651918
0.625407
0.595989
0.564159
0.530436
0.49535
0.459431
0.423194
0.387128
0.351682
0.317263
0.284221
0.252853
0.223395
0.196028
0.170874
0.148007
0.127455
0.109207
0.0932241
0.0794438
0.0677914
0.058186
0.050548
0.0448057
0.0408992
0.0387847
0.0384357
0.0398435
0.0430158
0.0479733
0.0547455
0.0633648
0.0738591
0.0862444
0.100517
0.116643
0.134557
0.154145
0.17525
0.197663
0.22112
0.245311
0.269877
0.294419
0.31851
0.341704
0.363549
0.383606
0.401458
0.416731
0.429106
0.43833
0.44423
0.446719
0.445801
0.441575
0.43423
0.424045
0.411378
0.39666
0.380378
0.363069
0.345299
0.327652
0.310714
0.295059
0.281231
0.269735
0.261024
0.255484
0.253431
0.255095
0.260621
0.270062
0.283375
0.300427
0.320991
0.344754
0.371325
0.400241
0.430978
0.462965
0.495595
0.528237
0.560257
0.591024
0.619927
0.646392
0.669886
0.689936
0.706135
0.71815
0.725731
0.728711
0.727016
0.720659
0.709744
0.694458
0.67507
0.651918
0.625407
0.595989
0.564159
0.530436
0.49535
0.459431
0.423194
0.387128
0.351682
0.317263
0.284221
0.252853
0.223395
0.196028
0.170874
0.148007
0.127455
0.109207
0.0932241
0.0794438
0.0677914
0.058186
0.050548
0.0448057
0.0408992
0.0387847
0.0384357
0.0398435
0.0430158
0.0479733
0.0547455
0.0633648
0.0738591
0.0862444
0.100517
0.116643
0.134557
0.154145
0.17525
0.197663
0.22112
0.245311
0.269877
0.294419
0.31851
0.341704
0.363549
0.383606
0.401458
0.416731
0.429106
0.43833
0.44423
0.446719
0.445801
0.441575
0.43423
0.424045
0.411378
0.39666
0.380378
0.363069
0.345299
0.327652
0.310714
0.295059
0.281231
0.269735
0.261024
0.255484
0.253431
0.255095
0.260621
0.270062
0.283375
0.300427
0.320991
0.344754
0.371325
0.400241
0.430978
0.462965
0.495595
0.528237
0.560257
0.591024
0.619927
0.646392
0.669886
0.689936
0.706135
0.71815
0.725731
0.728711
0.727016
0.720659
0.709744
0.694458
0.67507
0.651918
0.625407
0.595989
0.564159
0.530436
0.49535
0.459431
0.423194
0.387128
0.351682
0.317263
0.284221
0.252853
0.223395
0.196028
0.170874
0.148007
0.127455
0.109207
0.0932241
0.0794438
0.0677914
0.058186
0.050548
0.0448057
0.0408992
0.0387847
0.0384357
0.0398435
0.0430158
0.0479733
0.0547455
0.0633648
0.0738591
0.0862444
0.100517
0.116643
0.134557
0.154145
0.17525
0.197663
0.22112
0.245311
0.269877
0.294419
0.31851
0.341704
0.363549
0.383606
0.401458
0.416731
0.429106
0.43833
0.44423
0.446719
0.445801
0.441575
0.43423
0.424045
0.411378
0.39666
0.380378
0.363069
0.345299
0.327652
0.310714
0.295059
0.281231
0.269735
0.261024
0.255484
0.253431
0.255095
0.260621
0.270062
0.283375
0.300427
0.320991
0.344754
0.371325
0.400241
0.430978
0.462965
0.495595
0.528237
0.560257
0.591024
0.619927
0.646392
0.669886
0.689936
0.706135
0.71815
0.725731
0.728711
0.727016
0.720659
0.709744
0.694458
0.67507
0.651918
0.625407
0.595989
0.564159
0.530436
0.49535
0.459431
0.423194
0.387128
0.351682
0.317263
0.284221
0.252853
0.223395
0.196028
0.170874
0.148007
0.127455
0.109207
0.0932241
0.0794438
0.0677914
0.058186
0.050548
0.0448057
0.0408992
0.0387847
0.0384357
0.0398435
0.0430158
0.0479733
0.0547455
0.0633648
0.0738591
0.0862444
0.100517
0.116643
0.134557
0.154145
0.17525
0.197663
0.22112
0.245311
0.269877
0.294419
0.31851
0.341704
0.363549
0.383606
0.401458
0.416731
0.429106
0.43833
0.44423
0.446719
0.445801
0.441575
0.43423
0.424045
0.411378
0.39666
0.380378
0.363069
0.345299
0.327652
0.310714
0.295059
0.281231
0.269735
0.261024
0.255484
0.253431
0.255095
0.260621
0.270062
0.283375
0.300427
0.320991
0.344754
0.371325
0.400241
0.430978
0.462965
0.495595
0.528237
0.560257
0.591024
0.619927
0.646392
0.669886
0.689936
0.706135
0.71815
0.725731
0.728711
0.727016
0.720659
0.709744
0.694458
0.67507
0.651918
0.625407
0.595989
0.564159
0.530436
0.49535
0.459431
0.423194
0.387128
0.351682
0.317263
0.284221
0.252853
0.223395
0.196028
0.170874
0.148007
0.127455
0.109207
0.0932241
0.0794438
0.0677914
0.058186
0.050548
0.0448057
0.0408992
0.0387847
0.0384357
0.0398435
0.0430158
0.0479733
0.0547455
0.0633648
0.0738591
0.0862444
0.100517
0.116643
0.134557
0.154145
0.17525
0.197663
0.22112
0.245311
0.269877
0.294419
0.31851
0.341704
0.363549
0.383606
0.401458
0.416731
0.429106
0.43833
0.44423
0.446719
0.445801
0.441575
0.43423
0.424045
0.411378
0.39666
0.380378
0.363069
0.345299
0.327652
0.310714
0.295059
0.281231
0.269735
0.261024
0.255484
0.253431
0.255095
0.260621
0.270062
0.283375
0.300427
0.320991
0.344754
0.371325
0.400241
0.430978
0.462965
0.495595
0.528237
0.560257
0.591024
0.619927
0.646392
0.669886
0.689936
0.706135
0.71815
0.725731
0.728711
0.727016
0.720659
0.709744
0.694458
0.67507
0.651918
0.625407
0.595989
0.564159
0.530436
0.49535
0.459431
0.423194
0.387128
0.351682
0.317263
0.284221
0.252853
0.223395
0.196028
0.170874
0.148007
0.127455
0.109207
0.0932241
0.0794438
0.0677914
0.058186
0.050548
0.0448057
0.0408992
0.0387847
0.0384357
0.0398435
0.0430158
0.0479733
0.0547455
0.0633648
0.0738591
0.0862444
0.100517
0.116643
0.134557
0.154145
0.17525
0.197663
0.22112
0.245311
0.269877
0.294419
0.31851
0.341704
0.363549
0.383606
0.401458
0.416731
0.429106
0.43833
0.44423
0.446719
0.445801
0.441575
0.43423
0.424045
0.411378
0.39666
0.380378
0.363069
0.345299
0.327652
0.310714
0.295059
0.281231
0.269735
0.261024
0.255484
0.253431
0.255095
0.260621
0.270062
0.283375
0.300427
0.320991
0.344754
0.371325
0.400241
0.430978
0.462965
0.495595
0.528237
0.560257
0.591024
0.619927
0.646392
0.669886
0.689936
0.706135
0.71815
0.725731
0.728711
0.727016
0.720659
0.709744
0.694458
0.67507
0.651918
0.625407
0.595989
0.564159
0.530436
0.49535
0.459431
0.423194
0.387128
0.351682
0.317263
0.284221
0.252853
0.223395
0.196028
0.170874
0.148007
0.127455
0.109207
0.0932241
0.0794438
0.0677914
0.058186
0.050548
0.0448057
0.0408992
0.0387847
0.0384357
0.0398435
0.0430158
0.0479733
0.0547455
0.0633648
0.0738591
0.0862444
0.100517
0.116643
0.134557
0.154145
0.17525
0.197663
0.22112
0.245311
0.269877
0.294419
0.31851
0.341704
0.363549
0.383606
0.401458
0.416731
0.429106
0.43833
0.44423
0.446719
0.445801
0.441575
0.43423
0.424045
0.411378
0.39666
0.380378
0.363069
0.345299
0.327652
0.310714
0.295059
0.281231
0.269735
0.261024
0.255484
0.253431
0.255095
0.260621
0.270062
0.283375
0.300427
0.320991
0.344754
0.371325
0.400241
0.430978
0.462965
0.495595
0.528237
0.560257
0.591024
0.619927
0.646392
0.669886
0.689936
0.706135
0.71815
0.725731
0.728711
0.727016
0.720659
0.709744
0.694458
0.67507
0.651918
0.625407
0.595989
0.564159
0.530436
0.49535
0.459431
0.423194
0.387128
0.351682
0.317263
0.284221
0.252853
0.223395
0.196028
0.170874
0.148007
0.127455
0.109207
0.0932241
0.0794438
0.0677914
0.058186
0.050548
0.0448057
0.0408992
0.0387847
0.0384357
0.0398435
0.0430158
0.0479733
0.0547455
0.0633648
0.0738591
0.0862444
0.100517
0.116643
0.134557
0.154145
0.17525
0.197663
0.22112
0.245311
0.269877
0.294419
0.31851
0.341704
0.363549
0.383606
0.401458
0.416731
0.429106
0.43833
0.44423
0.446719
0.445801
0.441575
0.43423
0.424045
0.411378
0.39666
0.380378
0.363069
0.345299
0.327652
0.310714
0.295059
0.281231
0.269735
0.261024
0.255484
0.253431
0.255095
0.260621
0.270062
0.283375
0.300427
0.320991
0.344754
0.371325
0.400241
0.430978
0.462965
0.495595
0.528237
0.560257
0.591024
0.619927
0.646392
0.669886
0.689936
0.706135
0.71815
0.725731
0.728711
0.727016
0.720659
0.709744
0.694458
0.67507
0.651918
0.625407
0.595989
0.564159
0.530436
0.49535
0.459431
0.423194
0.387128
0.351682
0.317263
0.284221
0.252853
0.223395
0.196028
0.170874
0.148007
0.127455
0.109207
0.0932241
0.0794438
0.0677914
0.058186
0.050548
0.0448057
0.0408992
0.0387847
0.0384357
0.0398435
0.0430158
0.0479733
0.0547455
0.0633648
0.0738591
0.0862444
0.100517
0.116643
0.134557
0.154145
0.17525
0.197663
0.22112
0.245311
0.269877
0.294419
0.31851
0.341704
0.363549
0.383606
0.401458
0.416731
0.429106
0.43833
0.44423
0.446719
0.445801
0.441575
0.43423
0.424045
0.411378
0.39666
0.380378
0.363069
0.345299
0.327652
0.310714
0.295059
0.281231
0.269735
0.261024
0.255484
0.253431
0.255095
0.260621
0.270062
0.283375
0.300427
0.320991
0.344754
0.371325
0.400241
0.430978
0.462965
0.495595
0.528237
0.560257
0.591024
0.619927
0.646392
0.669886
0.689936
0.706135
0.71815
0.725731
0.728711
0.727016
0.720659
0.709744
0.694458
0.67507
0.651918
0.625407
0.595989
0.564159
0.530436
0.49535
0.459431
0.423194
0.387128
0.351682
0.317263
0.284221
0.252853
0.223395
0.196028
0.170874
0.148007
0.127455
0.109207
0.0932241
0.0794438
0.0677914
0.058186
0.050548
0.0448057
0.0408992
0.0387847
0.0384357
0.0398435
0.0430158
0.0479733
0.0547455
0.0633648
0.0738591
0.0862444
0.100517
0.116643
0.134557
0.154145
0.17525
0.197663
0.22112
0.245311
0.269877
0.294419
0.31851
0.341704
0.363549
0.383606
0.401458
0.416731
0.429106
0.43833
0.44423
0.446719
0.445801
0.441575
0.43423
0.424045
0.411378
0.39666
0.380378
0.363069
0.345299
0.327652
0.310714
0.295059
0.281231
0.269735
0.261024
0.255484
0.253431
0.255095
0.260621
0.270062
0.283375
0.300427
0.320991
0.344754
0.371325
0.400241
0.430978
0.462965
0.495595
0.528237
0.560257
0.591024
0.619927
0.646392
0.669886
0.689936
0.706135
0.71815
0.725731
0.728711
0.727016
0.720659
0.709744
0.694458
0.67507
0.651918
0.625407
0.595989
0.564159
0.530436
0.49535
0.459431
0.423194
0.387128
0.351682
0.317263
0.284221
0.252853
0.223395
0.196028
0.170874
0.148007
0.127455
0.109207
0.0932241
0.0794438
0.0677914
0.058186
0.050548
0.0448057
0.0408992
0.0387847
0.0384357
0.0398435
0.0430158
0.0479733
0.0547455
0.0633648
0.0738591
0.0862444
0.100517
0.116643
0.134557
0.154145
0.17525
0.197663
0.22112
0.245311
0.269877
0.294419
0.31851
0.341704
0.363549
0.383606
0.401458
0.416731
0.429106
0.43833
0.44423
0.446719
0.445801
0.441575
0.43423
0.424045
0.411378
0.39666
0.380378
0.363069
0.345299
0.327652
0.310714
0.295059
0.281231
0.269735
0.261024
0.255484
0.253431
0.255095
0.260621
0.270062
0.283375
0.300427
0.320991
0.344754
0.371325
0.400241
0.430978
0.462965
0.495595
0.528237
0.560257
0.591024
0.619927
0.646392
0.669886
0.689936
0.706135
0.71815
0.725731
0.728711
0.727016
0.720659
0.709744
0.694458
0.67507
0.651918
0.625407
0.595989
0.564159
0.530436
0.49535
0.459431
0.423194
0.387128
0.351682
0.317263
0.284221
0.252853
0.223395
0.196028
0.170874
0.148007
0.127455
0.109207
0.0932241
0.0794438
0.0677914
0.058186
0.050548
0.0448057
0.0408992
0.0387847
0.0384357
0.0398435
0.0430158
0.0479733
0.0547455
0.0633648
0.0738591
0.0862444
0.100517
0.116643
0.134557
0.154145
0.17525
0.197663
0.22112
0.245311
0.269877
0.294419
0.31851
0.341704
0.363549
0.383606
0.401458
0.416731
0.429106
0.43833
0.44423
0.446719
0.445801
0.441575
0.43423
0.424045
0.411378
0.39666
0.380378
0.363069
0.345299
0.327652
0.310714
0.295059
0.281231
0.269735
0.261024
0.255484
0.253431
0.255095
0.260621
0.270062
0.283375
0.300427
0.320991
0.344754
0.371325
0.400241
0.430978
0.462965
0.495595
0.528237
0.560257
0.591024
0.619927
0.646392
0.669886
0.689936
0.706135
0.71815
0.725731
0.728711
0.727016
0.720659
0.709744
0.694458
0.67507
0.651918
0.625407
0.595989
0.564159
0.530436
0.49535
0.459431
0.423194
0.387128
0.351682
0.317263
0.284221
0.252853
0.223395
0.196028
0.170874
0.148007
0.127455
0.109207
0.0932241
0.0794438
0.0677914
0.058186
0.050548
0.0448057
0.0408992
0.0387847
0.0384357
0.0398435
0.0430158
0.0479733
0.0547455
0.0633648
0.0738591
0.0862444
0.100517
0.116643
0.134557
0.154145
0.17525
0.197663
0.22112
0.245311
0.269877
0.294419
0.31851
0.341704
0.363549
0.383606
0.401458
0.416731
0.429106
0.43833
0.44423
0.446719
0.445801
0.441575
0.43423
0.424045
0.411378
0.39666
0.380378
0.363069
0.345299
0.327652
0.310714
0.295059
0.281231
0.269735
0.261024
0.255484
0.253431
0.255095
0.260621
0.270062
0.283375
0.300427
0.320991
0.344754
0.371325
0.400241
0.430978
0.462965
0.495595
0.528237
0.560257
0.591024
0.619927
0.646392
0.669886
0.689936
0.706135
0.71815
0.725731
0.728711
0.727016
0.720659
0.709744
0.694458
0.67507
0.651918
0.625407
0.595989
0.564159
0.530436
0.49535
0.459431
0.423194
0.387128
0.351682
0.317263
0.284221
0.252853
0.223395
0.196028
0.170874
0.148007
0.127455
0.109207
0.0932241
0.0794438
0.0677914
0.058186
0.050548
0.0448057
0.0408992
0.0387847
0.0384357
0.0398435
0.0430158
0.0479733
0.0547455
0.0633648
0.0738591
0.0862444
0.100517
0.116643
0.134557
0.154145
0.17525
0.197663
0.22112
0.245311
0.269877
0.294419
0.31851
0.341704
0.363549
0.383606
0.401458
0.416731
0.429106
0.43833
0.44423
0.446719
0.445801
0.441575
0.43423
0.424045
0.411378
0.39666
0.380378
0.363069
0.345299
0.327652
0.310714
0.295059
0.281231
0.269735
0.261024
0.255484
0.253431
0.255095
0.260621
0.270062
0.283375
0.300427
0.320991
0.344754
0.371325
0.400241
0.430978
0.462965
0.495595
0.528237
0.560257
0.591024
0.619927
0.646392
0.669886
0.689936
0.706135
0.71815
0.725731
0.728711
0.727016
0.720659
0.709744
0.694458
0.67507
0.651918
0.625407
0.595989
0.564159
0.530436
0.49535
0.459431
0.423194
0.387128
0.351682
0.317263
0.284221
0.252853
0.223395
0.196028
0.170874
0.148007
0.127455
0.109207
0.0932241
0.0794438
0.0677914
0.058186
0.050548
0.0448057
0.0408992
0.0387847
0.0384357
0.0398435
0.0430158
0.0479733
0.0547455
0.0633648
0.0738591
0.0862444
0.100517
0.116643
0.134557
0.154145
0.17525
0.197663
0.22112
0.245311
0.269877
0.294419
0.31851
0.341704
0.363549
0.383606
0.401458
0.416731
0.429106
0.43833
0.44423
0.446719
0.445801
0.441575
0.43423
0.424045
0.411378
0.39666
0.380378
0.363069
0.345299
0.327652
0.310714
0.295059
0.281231
0.269735
0.261024
0.255484
0.253431
0.255095
0.260621
0.270062
0.283375
0.300427
0.320991
0.344754
0.371325
0.400241
0.430978
0.462965
0.495595
0.528237
0.560257
0.591024
0.619927
0.646392
0.669886
0.689936
0.706135
0.71815
0.725731
0.728711
0.727016
0.720659
0.709744
0.694458
0.67507
0.651918
0.625407
0.595989
0.564159
0.530436
0.49535
0.459431
0.423194
0.387128
0.351682
0.317263
0.284221
0.252853
0.223395
0.196028
0.170874
0.148007
0.127455
0.109207
0.0932241
0.0794438
0.0677914
0.058186
0.050548
0.0448057
0.0408992
0.0387847
0.0384357
0.0398435
0.0430158
0.0479733
0.0547455
0.0633648
0.0738591
0.0862444
0.100517
0.116643
0.134557
0.154145
0.17525
0.197663
0.22112
0.245311
0.269877
0.294419
0.31851
0.341704
0.363549
0.383606
0.401458
0.416731
0.429106
0.43833
0.44423
0.446719
0.445801
0.441575
0.43423
0.424045
0.411378
0.39666
0.380378
0.363069
0.345299
0.327652
0.310714
0.295059
0.281231
0.269735
0.261024
0.255484
0.253431
0.255095
0.260621
0.270062
0.283375
0.300427
0.320991
0.344754
0.371325
0.400241
0.430978
0.462965
0.495595
0.528237
0.560257
0.591024
0.619927
0.646392
0.669886
0.689936
0.706135
0.71815
0.725731
0.728711
0.727016
0.720659
0.709744
0.694458
0.67507
0.651918
0.625407
0.595989
0.564159
0.530436
0.49535
0.459431
0.423194
0.387128
0.351682
0.317263
0.284221
0.252853
0.223395
0.196028
0.170874
0.148007
0.127455
0.109207
0.0932241
0.0794438
0.0677914
0.058186
0.050548
0.0448057
0.0408992
0.0387847
0.0384357
0.0398435
0.0430158
0.0479733
0.0547455
0.0633648
0.0738591
0.0862444
0.100517
0.116643
0.134557
0.154145
0.17525
0.197663
0.22112
0.245311
0.269877
0.294419
0.31851
0.341704
0.363549
0.383606
0.401458
0.416731
0.429106
0.43833
0.44423
0.446719
0.445801
0.441575
0.43423
0.424045
0.411378
0.39666
0.380378
0.363069
0.345299
0.327652
0.310714
0.295059
0.281231
0.269735
0.261024
0.255484
0.253431
0.255095
0.260621
0.270062
0.283375
0.300427
0.320991
0.344754
0.371325
0.400241
0.430978
0.462965
0.495595
0.528237
0.560257
0.591024
0.619927
0.646392
0.669886
0.689936
0.706135
0.71815
0.725731
0.728711
0.727016
0.720659
0.709744
0.694458
0.67507
0.651918
0.625407
0.595989
0.564159
0.530436
0.49535
0.459431
0.423194
0.387128
0.351682
0.317263
0.284221
0.252853
0.223395
0.196028
0.170874
0.148007
0.127455
0.109207
0.0932241
0.0794438
0.0677914
0.058186
0.050548
0.0448057
0.0408992
0.0387847
0.0384357
0.0398435
0.0430158
0.0479733
0.0547455
0.0633648
0.0738591
0.0862444
0.100517
0.116643
0.134557
0.154145
0.17525
0.197663
0.22112
0.245311
0.269877
0.294419
0.31851
0.341704
0.363549
0.383606
0.401458
0.416731
0.429106
0.43833
0.44423
0.446719
0.445801
0.441575
0.43423
0.424045
0.411378
0.39666
0.380378
0.363069
0.345299
0.327652
0.310714
0.295059
0.281231
0.269735
0.261024
0.255484
0.253431
0.255095
0.260621
0.270062
0.283375
0.300427
0.320991
0.344754
0.371325
0.400241
0.430978
0.462965
0.495595
0.528237
0.560257
0.591024
0.619927
0.646392
0.669886
0.689936
0.706135
0.71815
0.725731
0.728711
0.727016
0.720659
0.709744
0.694458
0.67507
0.651918
0.625407
0.595989
0.564159
0.530436
0.49535
0.459431
0.423194
0.387128
0.351682
0.317263
0.284221
0.252853
0.223395
0.196028
0.170874
0.148007
0.127455
0.109207
0.0932241
0.0794438
0.0677914
0.058186
0.050548
0.0448057
0.0408992
0.0387847
0.0384357
0.0398435
0.0430158
0.0479733
0.0547455
0.0633648
0.0738591
0.0862444
0.100517
0.116643
0.134557
0.154145
0.17525
0.197663
0.22112
0.245311
0.269877
0.294419
0.31851
0.341704
0.363549
0.383606
0.401458
0.416731
0.429106
0.43833
0.44423
0.446719
0.445801
0.441575
0.43423
0.424045
0.411378
0.39666
0.380378
0.363069
0.345299
0.327652
0.310714
0.295059
0.281231
0.269735
0.261024
0.255484
0.253431
0.255095
0.260621
0.270062
0.283375
0.300427
0.320991
0.344754
0.371325
0.400241
0.430978
0.462965
0.495595
0.528237
0.560257
0.591024
0.619927
0.646392
0.669886
0.689936
0.706135
0.71815
0.725731
0.728711
0.727016
0.720659
0.709744
0.694458
0.67507
0.651918
0.625407
0.595989
0.564159
0.530436
0.49535
0.459431
0.423194
0.387128
0.351682
0.317263
0.284221
0.252853
0.223395
0.196028
0.170874
0.148007
0.127455
0.109207
0.0932241
0.0794438
0.0677914
0.058186
0.050548
0.0448057
0.0408992
0.0387847
0.0384357
0.0398435
0.0430158
0.0479733
0.0547455
0.0633648
0.0738591
0.0862444
0.100517
0.116643
0.134557
0.154145
0.17525
0.197663
0.22112
0.245311
0.269877
0.294419
0.31851
0.341704
0.363549
0.383606
0.401458
0.416731
0.429106
0.43833
0.44423
0.446719
0.445801
0.441575
0.43423
0.424045
0.411378
0.39666
0.380378
0.363069
0.345299
0.327652
0.310714
0.295059
0.281231
0.269735
0.261024
0.255484
0.253431
0.255095
0.260621
0.270062
0.283375
0.300427
0.320991
0.344754
0.371325
0.400241
0.430978
0.462965
0.495595
0.528237
0.560257
0.591024
0.619927
0.646392
0.669886
0.689936
0.706135
0.71815
0.725731
0.728711
0.727016
0.720659
0.709744
0.694458
0.67507
0.651918
0.625407
0.595989
0.564159
0.530436
0.49535
0.459431
0.423194
0.387128
0.351682
0.317263
0.284221
0.252853
0.223395
0.196028
0.170874
0.148007
0.127455
0.109207
0.0932241
0.0794438
0.0677914
0.058186
0.050548
0.0448057
0.0408992
0.0387847
0.0384357
0.0398435
0.0430158